 vasp.6.0.0 18Apr17 (build Mar 23 2018 09:59:13) complex                        
  
 executed on             LinuxIFC date 2018.06.18  11:00:52
 running on    1 total cores
 distrk:  each k-point on    1 cores,    1 groups
 distr:  one band on NCORES_PER_BAND=   1 cores,    1 groups


--------------------------------------------------------------------------------------------------------


 INCAR:
 POTCAR:    PAW_PBE Co 02Aug2007                  
 POTCAR:    PAW_PBE V 08Apr2002                   
 POTCAR:    PAW_PBE Co 02Aug2007                  
   VRHFIN =Co: d8 s1                                                            
   LEXCH  = PE                                                                  
   EATOM  =   813.3670 eV,   59.7808 Ry                                         
                                                                                
   TITEL  = PAW_PBE Co 02Aug2007                                                
   LULTRA =        F    use ultrasoft PP ?                                      
   IUNSCR =        1    unscreen: 0-lin 1-nonlin 2-no                           
   RPACOR =    2.000    partial core radius                                     
   POMASS =   58.933; ZVAL   =    9.000    mass and valenz                      
   RCORE  =    2.300    outmost cutoff radius                                   
   RWIGS  =    2.460; RWIGS  =    1.302    wigner-seitz radius (au A)           
   ENMAX  =  267.968; ENMIN  =  200.976 eV                                      
   RCLOC  =    1.203    cutoff for local pot                                    
   LCOR   =        T    correct aug charges                                     
   LPAW   =        T    paw PP                                                  
   EAUG   =  477.818                                                            
   DEXC   =    0.000                                                            
   RMAX   =    2.360    core radius for proj-oper                               
   RAUG   =    1.300    factor for augmentation sphere                          
   RDEP   =    2.393    radius for radial grids                                 
   RDEPT  =    1.864    core radius for aug-charge                              
                                                                                
   Atomic configuration                                                         
    9 entries                                                                   
     n  l   j            E        occ.                                          
     1  0  0.50     -7587.6674   2.0000                                         
     2  0  0.50      -893.6084   2.0000                                         
     2  1  1.50      -764.5805   6.0000                                         
     3  0  0.50       -97.5973   2.0000                                         
     3  1  1.50       -60.9648   6.0000                                         
     3  2  2.50        -4.2382   8.0000                                         
     4  0  0.50        -4.3746   1.0000                                         
     4  1  1.50        -4.0817   0.0000                                         
     4  3  2.50        -1.3606   0.0000                                         
   Description                                                                  
     l       E           TYP  RCUT    TYP  RCUT                                 
     2     -4.2382362     23  2.300                                             
     2     -5.5988188     23  2.300                                             
     0     -4.3745797     23  2.300                                             
     0      5.7660125     23  2.300                                             
     1     -2.7211652     23  2.300                                             
     1     16.9860234     23  2.300                                             
  local pseudopotential read in
  partial core-charges read in
  partial kinetic energy density read in
  atomic valenz-charges read in
  non local Contribution for L=           2  read in
    real space projection operators read in
  non local Contribution for L=           2  read in
    real space projection operators read in
  non local Contribution for L=           0  read in
    real space projection operators read in
  non local Contribution for L=           0  read in
    real space projection operators read in
  non local Contribution for L=           1  read in
    real space projection operators read in
  non local Contribution for L=           1  read in
    real space projection operators read in
    PAW grid and wavefunctions read in
 
   number of l-projection  operators is LMAX  =           6
   number of lm-projection operators is LMMAX =          18
 
 POTCAR:    PAW_PBE V 08Apr2002                   
   VRHFIN =V: p6 d4 s1                                                          
   LEXCH  = PE                                                                  
   EATOM  =   170.8679 eV,   12.5584 Ry                                         
                                                                                
   TITEL  = PAW_PBE V 08Apr2002                                                 
   LULTRA =        F    use ultrasoft PP ?                                      
   IUNSCR =        1    unscreen: 0-lin 1-nonlin 2-no                           
   RPACOR =    2.000    partial core radius                                     
   POMASS =   50.941; ZVAL   =    5.000    mass and valenz                      
   RCORE  =    2.700    outmost cutoff radius                                   
   RWIGS  =    2.500; RWIGS  =    1.323    wigner-seitz radius (au A)           
   ENMAX  =  192.543; ENMIN  =  144.408 eV                                      
   RCLOC  =    1.779    cutoff for local pot                                    
   LCOR   =        T    correct aug charges                                     
   LPAW   =        T    paw PP                                                  
   EAUG   =  358.662                                                            
   DEXC   =    0.000                                                            
   RMAX   =    2.768    core radius for proj-oper                               
   RAUG   =    1.300    factor for augmentation sphere                          
   RDEP   =    2.762    radius for radial grids                                 
   RDEPT  =    2.240    core radius for aug-charge                              
                                                                                
   Atomic configuration                                                         
    9 entries                                                                   
     n  l   j            E        occ.                                          
     1  0  0.50     -5360.7193   2.0000                                         
     2  0  0.50      -598.4546   2.0000                                         
     2  1  1.50      -499.0155   6.0000                                         
     3  0  0.50       -66.5711   2.0000                                         
     3  1  1.50       -40.5282   6.0000                                         
     3  2  2.50        -2.4291   4.0000                                         
     4  0  0.50        -3.8743   1.0000                                         
     4  1  0.50        -2.7212   0.0000                                         
     4  3  2.50        -1.3606   0.0000                                         
   Description                                                                  
     l       E           TYP  RCUT    TYP  RCUT                                 
     2     -2.4290901     23  2.700                                             
     2     -3.7896727     23  2.700                                             
     0     -3.8742752     23  2.700                                             
     0     27.2116520     23  2.700                                             
     1     -2.7211652     23  2.700                                             
     1     27.2116520     23  2.700                                             
  local pseudopotential read in
  partial core-charges read in
  partial kinetic energy density read in
  atomic valenz-charges read in
  non local Contribution for L=           2  read in
    real space projection operators read in
  non local Contribution for L=           2  read in
    real space projection operators read in
  non local Contribution for L=           0  read in
    real space projection operators read in
  non local Contribution for L=           0  read in
    real space projection operators read in
  non local Contribution for L=           1  read in
    real space projection operators read in
  non local Contribution for L=           1  read in
    real space projection operators read in
    PAW grid and wavefunctions read in
 
   number of l-projection  operators is LMAX  =           6
   number of lm-projection operators is LMMAX =          18
 
  PAW_PBE Co 02Aug2007                  :
 energy of atom  1       EATOM= -813.3670
 kinetic energy error for atom=    0.0366 (will be added to EATOM!!)
  PAW_PBE V 08Apr2002                   :
 energy of atom  2       EATOM= -170.8679
 kinetic energy error for atom=    0.0066 (will be added to EATOM!!)
 
 
 POSCAR: Co  V                                   
  positions in cartesian coordinates
  No initial velocities read in
 exchange correlation table for  LEXCH =        8
   RHO(1)=    0.500       N(1)  =     2000
   RHO(2)=  100.500       N(2)  =     4000
 


--------------------------------------------------------------------------------------------------------


 ion  position               nearest neighbor table
   1  0.000  0.000  0.000-   2 2.60   2 2.60   2 2.60   2 2.60   2 2.60   2 2.60
   2  0.500  0.500  0.000-   1 2.60   1 2.60   1 2.60   1 2.60   1 2.60   1 2.60
 
  LATTYP: Found a trigonal (rhomboedric) cell.
 ALAT       =     4.5070611267
 COS(alpha) =     0.8333333333
  
  Lattice vectors:
  
 A1 = (  -3.6800000000,   1.8400000000,   1.8400000000)
 A2 = (  -1.8400000000,   1.8400000000,   3.6800000000)
 A3 = (  -1.8400000000,   3.6800000000,   1.8400000000)


Analysis of symmetry for initial positions (statically):
=====================================================================
 Subroutine PRICEL returns:
 Original cell was already a primitive cell.
 

 Routine SETGRP: Setting up the symmetry group for a 
 trigonal (rhombohedral) supercell.


 Subroutine GETGRP returns: Found 12 space group operations
 (whereof 12 operations were pure point group operations)
 out of a pool of 12 trial point group operations.


The static configuration has the point symmetry D_3d.


Analysis of symmetry for dynamics (positions and initial velocities):
=====================================================================
 Subroutine PRICEL returns:
 Original cell was already a primitive cell.
 

 Routine SETGRP: Setting up the symmetry group for a 
 trigonal (rhombohedral) supercell.


 Subroutine GETGRP returns: Found 12 space group operations
 (whereof 12 operations were pure point group operations)
 out of a pool of 12 trial point group operations.


The dynamic configuration has the point symmetry D_3d.


 Subroutine INISYM returns: Found 12 space group operations
 (whereof 12 operations are pure point group operations),
 and found     1 'primitive' translations

 
 
 KPOINTS: Server version 2018.05.22. K-point grid 
  k-points in reciprocal lattice
Space group operators:
 irot       det(A)        alpha          n_x          n_y          n_z        tau_x        tau_y        tau_z
    1     1.000000     0.000000     1.000000     0.000000     0.000000     0.000000     0.000000     0.000000
    2    -1.000000     0.000000     1.000000     0.000000     0.000000     0.000000     0.000000     0.000000
    3     1.000000   180.000000    -0.000000     0.707107    -0.707107     0.000000     0.000000     0.000000
    4    -1.000000   180.000000    -0.000000     0.707107    -0.707107     0.000000     0.000000     0.000000
    5     1.000000   120.000000     0.577350    -0.577350    -0.577350     0.000000     0.000000     0.000000
    6    -1.000000   120.000000     0.577350    -0.577350    -0.577350     0.000000     0.000000     0.000000
    7     1.000000   180.000000     0.707107     0.000000     0.707107     0.000000     0.000000     0.000000
    8    -1.000000   180.000000     0.707107     0.000000     0.707107     0.000000     0.000000     0.000000
    9     1.000000   120.000000    -0.577350     0.577350     0.577350     0.000000     0.000000     0.000000
   10    -1.000000   120.000000    -0.577350     0.577350     0.577350     0.000000     0.000000     0.000000
   11     1.000000   180.000000     0.707107     0.707107     0.000000     0.000000     0.000000     0.000000
   12    -1.000000   180.000000     0.707107     0.707107     0.000000     0.000000     0.000000     0.000000


--------------------------------------------------------------------------------------------------------




 Dimension of arrays:
   k-points           NKPTS =    374   k-points in BZ     NKDIM =    374   number of bands    NBANDS=     11
   number of dos      NEDOS =    301   number of ions     NIONS =      2
   non local maximal  LDIM  =      6   non local SUM 2l+1 LMDIM =     18
   total plane-waves  NPLWV =   4704
   max r-space proj   IRMAX =      1   max aug-charges    IRDMAX=  11647
   dimension x,y,z NGX =    14 NGY =   24 NGZ =   14
   dimension x,y,z NGXF=    28 NGYF=   48 NGZF=   28
   support grid    NGXF=    28 NGYF=   48 NGZF=   28
   ions per type =               1   1
   NGX,Y,Z   is equivalent  to a cutoff of   8.94,  8.85,  8.94 a.u.
   NGXF,Y,Z  is equivalent  to a cutoff of  17.89, 17.71, 17.89 a.u.

 SYSTEM =  unknown system                          
 POSCAR =  Co  V                                   

 Startparameter for this run:
   NWRITE =      2    write-flag & timer
   PREC   = a         normal or accurate (medium, high low for compatibility)
   ISTART =      0    job   : 0-new  1-cont  2-samecut
   ICHARG =      2    charge: 1-file 2-atom 10-const
   ISPIN  =      1    spin polarized calculation?
   LNONCOLLINEAR =      F non collinear calculations
   LSORBIT =      F    spin-orbit coupling
   INIWAV =      1    electr: 0-lowe 1-rand  2-diag
   LASPH  =      F    aspherical Exc in radial PAW
   METAGGA=      F    non-selfconsistent MetaGGA calc.

 Electronic Relaxation 1
   ENCUT  =  268.0 eV  19.70 Ry    4.44 a.u.   3.47  6.02  3.47*2*pi/ulx,y,z
   ENINI  =  268.0     initial cutoff
   ENAUG  =  477.8 eV  augmentation charge cutoff
   NELM   =     60;   NELMIN=  2; NELMDL= -5     # of ELM steps 
   EDIFF  = 0.1E-04   stopping-criterion for ELM
   LREAL  =      F    real-space projection
   NLSPLINE    = F    spline interpolate recip. space projectors
   LCOMPAT=      F    compatible to vasp.4.4
   GGA_COMPAT  = T    GGA compatible to vasp.4.4-vasp.4.6
   LMAXPAW     = -100 max onsite density
   LMAXMIX     =    2 max onsite mixed and CHGCAR
   VOSKOWN=      0    Vosko Wilk Nusair interpolation
   ROPT   =    0.00000   0.00000
 Ionic relaxation
   EDIFFG = 0.1E-03   stopping-criterion for IOM
   NSW    =      0    number of steps for IOM
   NBLOCK =      1;   KBLOCK =      1    inner block; outer block 
   IBRION =     -1    ionic relax: 0-MD 1-quasi-New 2-CG
   NFREE  =      0    steps in history (QN), initial steepest desc. (CG)
   ISIF   =      2    stress and relaxation
   IWAVPR =     10    prediction:  0-non 1-charg 2-wave 3-comb
   ISYM   =      2    0-nonsym 1-usesym 2-fastsym
   LCORR  =      T    Harris-Foulkes like correction to forces

   POTIM  = 0.5000    time-step for ionic-motion
   TEIN   =    0.0    initial temperature
   TEBEG  =    0.0;   TEEND  =   0.0 temperature during run
   SMASS  =  -3.00    Nose mass-parameter (am)
   estimated Nose-frequenzy (Omega)   =  0.10E-29 period in steps =****** mass=  -0.155E-27a.u.
   SCALEE = 1.0000    scale energy and forces
   NPACO  =    256;   APACO  = 16.0  distance and # of slots for P.C.
   PSTRESS=    0.0 pullay stress

  Mass of Ions in am
   POMASS =  58.93 50.94
  Ionic Valenz
   ZVAL   =   9.00  5.00
  Atomic Wigner-Seitz radii
   RWIGS  =  -1.00 -1.00
  virtual crystal weights 
   VCA    =   1.00  1.00
   NELECT =      14.0000    total number of electrons
   NUPDOWN=      -1.0000    fix difference up-down

 DOS related values:
   EMIN   =  10.00;   EMAX   =-10.00  energy-range for DOS
   EFERMI =   0.00
   ISMEAR =     1;   SIGMA  =   0.20  broadening in eV -4-tet -1-fermi 0-gaus

 Electronic relaxation 2 (details)
   IALGO  =     38    algorithm
   LDIAG  =      T    sub-space diagonalisation (order eigenvalues)
   LSUBROT=      F    optimize rotation matrix (better conditioning)
   TURBO    =      0    0=normal 1=particle mesh
   IRESTART =      0    0=no restart 2=restart with 2 vectors
   NREBOOT  =      0    no. of reboots
   NMIN     =      0    reboot dimension
   EREF     =   0.00    reference energy to select bands
   IMIX   =      4    mixing-type and parameters
     AMIX     =   0.40;   BMIX     =  1.00
     AMIX_MAG =   1.60;   BMIX_MAG =  1.00
     AMIN     =   0.10
     WC   =   100.;   INIMIX=   1;  MIXPRE=   1;  MAXMIX= -45

 Intra band minimization:
   WEIMIN = 0.0000     energy-eigenvalue tresh-hold
   EBREAK =  0.23E-06  absolut break condition
   DEPER  =   0.30     relativ break condition  

   TIME   =   0.40     timestep for ELM

  volume/ion in A,a.u.               =      12.46        84.08
  Fermi-wavevector in a.u.,A,eV,Ry     =   1.350868  2.552771 24.828527  1.824845
  Thomas-Fermi vector in A             =   2.478337
 
 Write flags
   LWAVE        =      T    write WAVECAR
   LDOWNSAMPLE  =      F    k-point downsampling of WAVECAR
   LCHARG       =      T    write CHGCAR
   LVTOT        =      F    write LOCPOT, total local potential
   LVHAR        =      F    write LOCPOT, Hartree potential only
   LELF         =      F    write electronic localiz. function (ELF)
   LORBIT       =      0    0 simple, 1 ext, 2 COOP (PROOUT), +10 PAW based schemes


 Dipole corrections
   LMONO  =      F    monopole corrections only (constant potential shift)
   LDIPOL =      F    correct potential (dipole corrections)
   IDIPOL =      0    1-x, 2-y, 3-z, 4-all directions 
   EPSILON=  1.0000000 bulk dielectric constant

 Exchange correlation treatment:
   GGA     =    PE    GGA type
   LEXCH   =     8    internal setting for exchange type
   VOSKOWN=      0    Vosko Wilk Nusair interpolation
   LHFCALC =     F    Hartree Fock is set to
   LHFONE  =     F    Hartree Fock one center treatment
   AEXX    =    0.0000 exact exchange contribution

 Linear response parameters
   LEPSILON=     F    determine dielectric tensor
   LRPA    =     F    only Hartree local field effects (RPA)
   LNABLA  =     F    use nabla operator in PAW spheres
   LVEL    =     F    velocity operator in full k-point grid
   LINTERFAST=   F  fast interpolation
   KINTER  =     0    interpolate to denser k-point grid
   CSHIFT  =0.1000    complex shift for real part using Kramers Kronig
   OMEGAMAX=  -1.0    maximum frequency
   DEG_THRESHOLD= 0.2000000E-02 threshold for treating states as degnerate
   RTIME   =   -0.100 relaxation time in fs
  (WPLASMAI=    0.000 imaginary part of plasma frequency in eV, 0.658/RTIME)
   DFIELD  = 0.0000000 0.0000000 0.0000000 field for delta impulse in time
 
 Orbital magnetization related:
   ORBITALMAG=     F  switch on orbital magnetization
   LCHIMAG   =     F  perturbation theory with respect to B field
   DQ        =  0.001000  dq finite difference perturbation B field
   LLRAUG    =     F  two centre corrections for induced B field



--------------------------------------------------------------------------------------------------------


 Static calculation
 charge density and potential will be updated during run
 non-spin polarized calculation
 Variant of blocked Davidson
 Davidson routine will perform the subspace rotation
 perform sub-space diagonalisation
    after iterative eigenvector-optimisation
 modified Broyden-mixing scheme, WC =      100.0
 initial mixing is a Kerker type mixing with AMIX =  0.4000 and BMIX =      1.0000
 Hartree-type preconditioning will be used
 using additional bands            4
 reciprocal scheme for non local part
 use partial core corrections
 calculate Harris-corrections to forces 
   (improved forces if not selfconsistent)
 use gradient corrections 
 use of overlap-Matrix (Vanderbilt PP)
 Methfessel and Paxton  Order N= 1 SIGMA  =   0.20


--------------------------------------------------------------------------------------------------------


  energy-cutoff  :      267.97
  volume of cell :       24.92
      direct lattice vectors                 reciprocal lattice vectors
     1.840000000  1.840000000  0.000000000     0.407608696  0.135869565  0.135869565
    -1.840000000  1.840000000  3.680000000    -0.135869565  0.135869565  0.135869565
     0.000000000 -1.840000000  1.840000000     0.271739130 -0.271739130  0.271739130

  length of vectors
     2.602152955  4.507061127  2.602152955     0.450628368  0.235332990  0.470665980


 
 k-points in units of 2pi/SCALE and weight: Server version 2018.05.22. K-point grid 
  -0.11888587  0.11888587  0.11888587       0.000
  -0.10190217  0.10190217  0.11888587       0.001
  -0.08491848  0.08491848  0.11888587       0.001
  -0.06793478  0.06793478  0.11888587       0.001
  -0.05095109  0.05095109  0.11888587       0.001
  -0.03396739  0.03396739  0.11888587       0.001
  -0.01698370  0.01698370  0.11888587       0.001
   0.00000000  0.00000000  0.11888587       0.001
   0.01698370 -0.01698370  0.11888587       0.001
   0.03396739 -0.03396739  0.11888587       0.001
   0.05095109 -0.05095109  0.11888587       0.001
   0.06793478 -0.06793478  0.11888587       0.001
   0.08491848 -0.08491848  0.11888587       0.001
   0.10190217 -0.10190217  0.11888587       0.001
   0.11888587 -0.11888587  0.11888587       0.001
   0.00000000  0.00000000  0.25475543       0.001
   0.01698370 -0.01698370  0.25475543       0.001
   0.03396739 -0.03396739  0.25475543       0.001
   0.05095109 -0.05095109  0.25475543       0.001
   0.06793478 -0.06793478  0.25475543       0.001
   0.08491848 -0.08491848  0.25475543       0.001
   0.10190217 -0.10190217  0.25475543       0.001
   0.11888587 -0.11888587  0.25475543       0.001
   0.13586957 -0.13586957  0.25475543       0.001
   0.15285326 -0.15285326  0.25475543       0.001
   0.16983696 -0.16983696  0.25475543       0.001
   0.18682065 -0.18682065  0.25475543       0.001
   0.20380435 -0.20380435  0.25475543       0.001
   0.22078804 -0.22078804  0.25475543       0.001
   0.23777174 -0.23777174  0.25475543       0.001
   0.25475543 -0.25475543  0.25475543       0.001
   0.13586957 -0.13586957  0.39062500       0.001
  -0.08491848  0.10190217  0.10190217       0.001
  -0.06793478  0.08491848  0.10190217       0.003
  -0.05095109  0.06793478  0.10190217       0.003
  -0.03396739  0.05095109  0.10190217       0.003
  -0.01698370  0.03396739  0.10190217       0.003
   0.00000000  0.01698370  0.10190217       0.003
   0.01698370  0.00000000  0.10190217       0.003
   0.03396739 -0.01698370  0.10190217       0.003
   0.05095109 -0.03396739  0.10190217       0.003
   0.06793478 -0.05095109  0.10190217       0.003
   0.08491848 -0.06793478  0.10190217       0.003
   0.10190217 -0.08491848  0.10190217       0.003
  -0.01698370  0.03396739  0.23777174       0.003
   0.00000000  0.01698370  0.23777174       0.003
   0.01698370  0.00000000  0.23777174       0.003
   0.03396739 -0.01698370  0.23777174       0.003
   0.05095109 -0.03396739  0.23777174       0.003
   0.06793478 -0.05095109  0.23777174       0.003
   0.08491848 -0.06793478  0.23777174       0.003
   0.10190217 -0.08491848  0.23777174       0.003
   0.11888587 -0.10190217  0.23777174       0.003
   0.13586957 -0.11888587  0.23777174       0.003
   0.15285326 -0.13586957  0.23777174       0.003
   0.16983696 -0.15285326  0.23777174       0.003
   0.18682065 -0.16983696  0.23777174       0.003
   0.20380435 -0.18682065  0.23777174       0.003
   0.22078804 -0.20380435  0.23777174       0.003
   0.23777174 -0.22078804  0.23777174       0.003
   0.11888587 -0.10190217  0.37364130       0.003
   0.13586957 -0.11888587  0.37364130       0.003
   0.15285326 -0.13586957  0.37364130       0.003
  -0.05095109  0.08491848  0.08491848       0.001
  -0.01698370  0.05095109  0.08491848       0.003
   0.00000000  0.03396739  0.08491848       0.003
   0.01698370  0.01698370  0.08491848       0.003
   0.03396739  0.00000000  0.08491848       0.003
   0.05095109 -0.01698370  0.08491848       0.003
   0.06793478 -0.03396739  0.08491848       0.003
   0.08491848 -0.05095109  0.08491848       0.003
   0.10190217 -0.06793478  0.08491848       0.003
  -0.01698370  0.05095109  0.22078804       0.003
   0.00000000  0.03396739  0.22078804       0.003
   0.01698370  0.01698370  0.22078804       0.003
   0.03396739  0.00000000  0.22078804       0.003
   0.05095109 -0.01698370  0.22078804       0.003
   0.06793478 -0.03396739  0.22078804       0.003
   0.08491848 -0.05095109  0.22078804       0.003
   0.10190217 -0.06793478  0.22078804       0.003
   0.11888587 -0.08491848  0.22078804       0.003
   0.13586957 -0.10190217  0.22078804       0.003
   0.15285326 -0.11888587  0.22078804       0.003
   0.16983696 -0.13586957  0.22078804       0.003
   0.18682065 -0.15285326  0.22078804       0.003
   0.20380435 -0.16983696  0.22078804       0.003
   0.22078804 -0.18682065  0.22078804       0.003
   0.23777174 -0.20380435  0.22078804       0.003
   0.11888587 -0.08491848  0.35665761       0.003
   0.13586957 -0.10190217  0.35665761       0.003
   0.15285326 -0.11888587  0.35665761       0.003
   0.16983696 -0.13586957  0.35665761       0.003
   0.00000000  0.05095109  0.06793478       0.003
   0.01698370  0.03396739  0.06793478       0.003
   0.03396739  0.01698370  0.06793478       0.003
   0.05095109  0.00000000  0.06793478       0.003
   0.06793478 -0.01698370  0.06793478       0.003
   0.08491848 -0.03396739  0.06793478       0.003
  -0.03396739  0.08491848  0.20380435       0.003
  -0.01698370  0.06793478  0.20380435       0.003
   0.00000000  0.05095109  0.20380435       0.003
   0.01698370  0.03396739  0.20380435       0.003
   0.03396739  0.01698370  0.20380435       0.003
   0.05095109  0.00000000  0.20380435       0.003
   0.06793478 -0.01698370  0.20380435       0.003
   0.08491848 -0.03396739  0.20380435       0.003
   0.08491848 -0.01698370  0.05095109       0.003
  -0.03396739  0.10190217  0.18682065       0.003
  -0.01698370  0.08491848  0.18682065       0.003
  -0.00000000  0.06793478  0.18682065       0.003
   0.01698370  0.05095109  0.18682065       0.003
   0.03396739  0.03396739  0.18682065       0.003
   0.05095109  0.01698370  0.18682065       0.003
   0.06793478  0.00000000  0.18682065       0.003
   0.08491848 -0.01698370  0.18682065       0.003
   0.10190217 -0.03396739  0.18682065       0.003
   0.11888587 -0.05095109  0.18682065       0.003
   0.13586957 -0.06793478  0.18682065       0.003
   0.15285326 -0.08491848  0.18682065       0.003
   0.16983696 -0.10190217  0.18682065       0.003
   0.18682065 -0.11888587  0.18682065       0.003
   0.20380435 -0.13586957  0.18682065       0.003
   0.22078804 -0.15285326  0.18682065       0.003
   0.10190217 -0.03396739  0.32269022       0.003
   0.11888587 -0.05095109  0.32269022       0.003
   0.13586957 -0.06793478  0.32269022       0.003
   0.16983696 -0.10190217  0.32269022       0.003
   0.18682065 -0.11888587  0.32269022       0.003
   0.20380435 -0.13586957  0.32269022       0.003
   0.05095109  0.03396739  0.03396739       0.001
   0.06793478  0.01698370  0.03396739       0.003
  -0.03396739  0.11888587  0.16983696       0.003
  -0.01698370  0.10190217  0.16983696       0.003
   0.00000000  0.08491848  0.16983696       0.003
   0.01698370  0.06793478  0.16983696       0.003
   0.03396739  0.05095109  0.16983696       0.003
   0.05095109  0.03396739  0.16983696       0.003
   0.06793478  0.01698370  0.16983696       0.003
   0.08491848  0.00000000  0.16983696       0.003
   0.10190217 -0.01698370  0.16983696       0.003
   0.11888587 -0.03396739  0.16983696       0.003
   0.13586957 -0.05095109  0.16983696       0.003
   0.15285326 -0.06793478  0.16983696       0.003
   0.16983696 -0.08491848  0.16983696       0.003
   0.18682065 -0.10190217  0.16983696       0.003
   0.20380435 -0.11888587  0.16983696       0.003
   0.08491848 -0.00000000  0.30570652       0.003
   0.10190217 -0.01698370  0.30570652       0.003
   0.11888587 -0.03396739  0.30570652       0.003
   0.13586957 -0.05095109  0.30570652       0.003
   0.15285326 -0.06793478  0.30570652       0.003
   0.18682065 -0.10190217  0.30570652       0.003
   0.20380435 -0.11888587  0.30570652       0.003
   0.22078804 -0.13586957  0.30570652       0.003
  -0.05095109  0.15285326  0.15285326       0.001
  -0.01698370  0.11888587  0.15285326       0.003
   0.00000000  0.10190217  0.15285326       0.003
   0.01698370  0.08491848  0.15285326       0.003
   0.05095109  0.05095109  0.15285326       0.003
   0.06793478  0.03396739  0.15285326       0.003
   0.08491848  0.01698370  0.15285326       0.003
   0.10190217  0.00000000  0.15285326       0.003
   0.11888587 -0.01698370  0.15285326       0.003
   0.13586957 -0.03396739  0.15285326       0.003
   0.15285326 -0.05095109  0.15285326       0.003
   0.16983696 -0.06793478  0.15285326       0.003
   0.18682065 -0.08491848  0.15285326       0.003
   0.20380435 -0.10190217  0.15285326       0.003
   0.08491848  0.01698370  0.28872283       0.003
   0.10190217  0.00000000  0.28872283       0.003
   0.11888587 -0.01698370  0.28872283       0.003
   0.13586957 -0.03396739  0.28872283       0.003
   0.15285326 -0.05095109  0.28872283       0.003
   0.16983696 -0.06793478  0.28872283       0.003
   0.20380435 -0.10190217  0.28872283       0.003
   0.22078804 -0.11888587  0.28872283       0.003
   0.23777174 -0.13586957  0.28872283       0.003
  -0.00000000  0.11888587  0.13586957       0.003
   0.01698370  0.10190217  0.13586957       0.003
   0.03396739  0.08491848  0.13586957       0.003
   0.06793478  0.05095109  0.13586957       0.003
   0.08491848  0.03396739  0.13586957       0.003
   0.10190217  0.01698370  0.13586957       0.003
   0.11888587  0.00000000  0.13586957       0.003
   0.13586957 -0.01698370  0.13586957       0.003
   0.15285326 -0.03396739  0.13586957       0.003
   0.16983696 -0.05095109  0.13586957       0.003
   0.18682065 -0.06793478  0.13586957       0.003
   0.15285326 -0.01698370  0.11888587       0.003
   0.16983696 -0.03396739  0.11888587       0.003
   0.18682065 -0.05095109  0.11888587       0.003
   0.06793478  0.06793478  0.25475543       0.003
   0.08491848  0.05095109  0.25475543       0.003
   0.10190217  0.03396739  0.25475543       0.003
   0.11888587  0.01698370  0.25475543       0.003
   0.13586957 -0.00000000  0.25475543       0.003
   0.16983696 -0.03396739  0.25475543       0.003
   0.18682065 -0.05095109  0.25475543       0.003
   0.20380435 -0.06793478  0.25475543       0.003
   0.23777174 -0.10190217  0.25475543       0.003
   0.25475543 -0.11888587  0.25475543       0.003
   0.27173913 -0.13586957  0.25475543       0.003
   0.05095109  0.10190217  0.10190217       0.001
   0.06793478  0.08491848  0.10190217       0.003
   0.10190217  0.05095109  0.10190217       0.003
   0.11888587  0.03396739  0.10190217       0.003
   0.13586957  0.01698370  0.10190217       0.003
   0.16983696 -0.01698370  0.10190217       0.003
   0.05095109  0.10190217  0.23777174       0.003
   0.06793478  0.08491848  0.23777174       0.003
   0.08491848  0.06793478  0.23777174       0.003
   0.10190217  0.05095109  0.23777174       0.003
   0.11888587  0.03396739  0.23777174       0.003
   0.13586957  0.01698370  0.23777174       0.003
   0.15285326  0.00000000  0.23777174       0.003
   0.18682065 -0.03396739  0.23777174       0.003
   0.20380435 -0.05095109  0.23777174       0.003
   0.22078804 -0.06793478  0.23777174       0.003
   0.25475543 -0.10190217  0.23777174       0.003
   0.27173913 -0.11888587  0.23777174       0.003
   0.28872283 -0.13586957  0.23777174       0.003
   0.08491848  0.08491848  0.08491848       0.001
   0.11888587  0.05095109  0.08491848       0.003
   0.13586957  0.03396739  0.08491848       0.003
   0.15285326  0.01698370  0.08491848       0.003
   0.05095109  0.11888587  0.22078804       0.003
   0.06793478  0.10190217  0.22078804       0.003
   0.08491848  0.08491848  0.22078804       0.003
   0.11888587  0.05095109  0.22078804       0.003
   0.13586957  0.03396739  0.22078804       0.003
   0.15285326  0.01698370  0.22078804       0.003
   0.16983696  0.00000000  0.22078804       0.003
   0.20380435 -0.03396739  0.22078804       0.003
   0.22078804 -0.05095109  0.22078804       0.003
   0.23777174 -0.06793478  0.22078804       0.003
   0.27173913 -0.10190217  0.22078804       0.003
   0.28872283 -0.11888587  0.22078804       0.003
   0.30570652 -0.13586957  0.22078804       0.003
   0.13586957  0.05095109  0.06793478       0.003
   0.15285326  0.03396739  0.06793478       0.003
   0.03396739  0.15285326  0.20380435       0.003
   0.06793478  0.11888587  0.20380435       0.003
   0.08491848  0.10190217  0.20380435       0.003
   0.10190217  0.08491848  0.20380435       0.003
   0.13586957  0.05095109  0.20380435       0.003
   0.15285326  0.03396739  0.20380435       0.003
   0.23777174 -0.03396739  0.18682065       0.003
   0.25475543 -0.05095109  0.18682065       0.003
   0.27173913 -0.06793478  0.18682065       0.003
   0.16983696  0.03396739  0.32269022       0.003
   0.18682065  0.01698370  0.32269022       0.003
   0.20380435  0.00000000  0.32269022       0.003
   0.05095109  0.16983696  0.16983696       0.001
   0.06793478  0.15285326  0.16983696       0.003
   0.10190217  0.11888587  0.16983696       0.003
   0.11888587  0.10190217  0.16983696       0.003
   0.13586957  0.08491848  0.16983696       0.003
   0.18682065  0.03396739  0.16983696       0.003
   0.20380435  0.01698370  0.16983696       0.003
   0.25475543 -0.03396739  0.16983696       0.003
   0.27173913 -0.05095109  0.16983696       0.003
   0.15285326  0.06793478  0.30570652       0.003
   0.18682065  0.03396739  0.30570652       0.003
   0.20380435  0.01698370  0.30570652       0.003
   0.22078804  0.00000000  0.30570652       0.003
   0.08491848  0.15285326  0.15285326       0.001
   0.11888587  0.11888587  0.15285326       0.003
   0.13586957  0.10190217  0.15285326       0.003
   0.15285326  0.08491848  0.15285326       0.003
   0.20380435  0.03396739  0.15285326       0.003
   0.22078804  0.01698370  0.15285326       0.003
   0.27173913 -0.03396739  0.15285326       0.003
   0.15285326  0.08491848  0.28872283       0.003
   0.20380435  0.03396739  0.28872283       0.003
   0.22078804  0.01698370  0.28872283       0.003
   0.23777174  0.00000000  0.28872283       0.003
   0.13586957  0.11888587  0.13586957       0.003
   0.15285326  0.10190217  0.13586957       0.003
   0.16983696  0.08491848  0.13586957       0.003
   0.22078804  0.03396739  0.13586957       0.003
   0.23777174  0.01698370  0.13586957       0.003
   0.18682065  0.10190217  0.10190217       0.001
   0.20380435  0.08491848  0.10190217       0.003
   0.11888587  0.16983696  0.23777174       0.003
   0.13586957  0.15285326  0.23777174       0.003
   0.18682065  0.10190217  0.23777174       0.003
   0.20380435  0.08491848  0.23777174       0.003
   0.25475543  0.03396739  0.23777174       0.003
   0.27173913  0.01698370  0.23777174       0.003
   0.22078804  0.08491848  0.08491848       0.001
   0.13586957  0.16983696  0.22078804       0.003
   0.15285326  0.15285326  0.22078804       0.003
   0.20380435  0.10190217  0.22078804       0.003
   0.22078804  0.08491848  0.22078804       0.003
   0.27173913  0.03396739  0.22078804       0.003
   0.28872283  0.01698370  0.22078804       0.003
   0.15285326  0.16983696  0.20380435       0.003
   0.16983696  0.15285326  0.20380435       0.003
   0.22078804  0.10190217  0.20380435       0.003
   0.18682065  0.16983696  0.16983696       0.001
   0.20380435  0.15285326  0.16983696       0.003
   0.25475543  0.10190217  0.16983696       0.003
   0.27173913  0.08491848  0.16983696       0.003
   0.32269022  0.03396739  0.16983696       0.003
   0.33967391  0.01698370  0.16983696       0.003
   0.22078804  0.15285326  0.15285326       0.001
   0.27173913  0.10190217  0.15285326       0.003
   0.28872283  0.08491848  0.15285326       0.003
   0.33967391  0.03396739  0.15285326       0.003
   0.22078804  0.15285326  0.28872283       0.003
   0.28872283  0.10190217  0.13586957       0.003
   0.30570652  0.08491848  0.13586957       0.003
   0.18682065  0.23777174  0.23777174       0.001
   0.20380435  0.22078804  0.23777174       0.003
   0.25475543  0.16983696  0.23777174       0.003
   0.27173913  0.15285326  0.23777174       0.003
   0.22078804  0.22078804  0.22078804       0.001
   0.27173913  0.16983696  0.22078804       0.003
   0.28872283  0.15285326  0.22078804       0.003
   0.28872283  0.16983696  0.20380435       0.003
   0.32269022  0.16983696  0.16983696       0.001
   0.33967391  0.15285326  0.16983696       0.003
   0.35665761  0.15285326  0.15285326       0.001
  -0.05095109  0.05095109  0.05095109       0.000
   0.00000000  0.00000000  0.05095109       0.001
   0.01698370 -0.01698370  0.05095109       0.001
  -0.06793478  0.06793478  0.18682065       0.001
  -0.05095109  0.05095109  0.18682065       0.001
   0.00000000  0.00000000  0.18682065       0.001
   0.01698370 -0.01698370  0.18682065       0.001
   0.06793478 -0.06793478  0.18682065       0.001
   0.08491848 -0.08491848  0.18682065       0.001
   0.13586957 -0.13586957  0.18682065       0.001
   0.15285326 -0.15285326  0.18682065       0.001
   0.06793478 -0.06793478  0.32269022       0.001
   0.08491848 -0.08491848  0.32269022       0.001
   0.13586957 -0.13586957  0.32269022       0.001
   0.15285326 -0.15285326  0.32269022       0.001
   0.20380435 -0.20380435  0.32269022       0.001
  -0.06793478  0.11888587  0.13586957       0.003
  -0.01698370  0.06793478  0.13586957       0.003
   0.00000000  0.05095109  0.13586957       0.003
   0.05095109  0.00000000  0.13586957       0.003
   0.06793478 -0.01698370  0.13586957       0.003
   0.11888587 -0.06793478  0.13586957       0.003
   0.13586957 -0.08491848  0.13586957       0.003
   0.01698370  0.05095109  0.11888587       0.003
   0.06793478  0.00000000  0.11888587       0.003
   0.08491848 -0.01698370  0.11888587       0.003
   0.13586957 -0.06793478  0.11888587       0.003
   0.01698370  0.05095109  0.25475543       0.003
   0.06793478  0.00000000  0.25475543       0.003
   0.08491848 -0.01698370  0.25475543       0.003
   0.13586957 -0.06793478  0.25475543       0.003
   0.15285326 -0.08491848  0.25475543       0.003
   0.20380435 -0.13586957  0.25475543       0.003
   0.27173913 -0.20380435  0.25475543       0.003
   0.06793478  0.05095109  0.06793478       0.003
   0.00000000  0.11888587  0.20380435       0.003
   0.05095109  0.06793478  0.20380435       0.003
   0.06793478  0.05095109  0.20380435       0.003
   0.11888587 -0.00000000  0.20380435       0.003
   0.08491848  0.05095109  0.18682065       0.003
   0.13586957  0.00000000  0.18682065       0.003
   0.15285326 -0.01698370  0.18682065       0.003
   0.20380435 -0.06793478  0.18682065       0.003
   0.13586957  0.00000000  0.32269022       0.003
   0.20380435 -0.06793478  0.32269022       0.003
   0.06793478  0.11888587  0.13586957       0.003
   0.13586957  0.05095109  0.13586957       0.003
   0.20380435 -0.01698370  0.13586957       0.003
   0.20380435  0.00000000  0.25475543       0.003
   0.27173913 -0.06793478  0.25475543       0.003
   0.06793478  0.18682065  0.20380435       0.003
 
 k-points in reciprocal lattice and weights: Server version 2018.05.22. K-point grid 
   0.00000000  0.87500000  0.00000000       0.000
   0.00000000  0.81250000  0.03125000       0.001
   0.00000000  0.75000000  0.06250000       0.001
   0.00000000  0.68750000  0.09375000       0.001
   0.00000000  0.62500000  0.12500000       0.001
   0.00000000  0.56250000  0.15625000       0.001
   0.00000000  0.50000000  0.18750000       0.001
   0.00000000  0.43750000  0.21875000       0.001
   0.00000000  0.37500000  0.25000000       0.001
   0.00000000  0.31250000  0.28125000       0.001
   0.00000000  0.25000000  0.31250000       0.001
   0.00000000  0.18750000  0.34375000       0.001
   0.00000000  0.12500000  0.37500000       0.001
   0.00000000  0.06250000  0.40625000       0.001
   0.00000000  0.00000000  0.43750000       0.001
   0.00000000  0.93750000  0.46875000       0.001
   0.00000000  0.87500000  0.50000000       0.001
   0.00000000  0.81250000  0.53125000       0.001
   0.00000000  0.75000000  0.56250000       0.001
   0.00000000  0.68750000  0.59375000       0.001
   0.00000000  0.62500000  0.62500000       0.001
   0.00000000  0.56250000  0.65625000       0.001
   0.00000000  0.50000000  0.68750000       0.001
   0.00000000  0.43750000  0.71875000       0.001
   0.00000000  0.37500000  0.75000000       0.001
   0.00000000  0.31250000  0.78125000       0.001
   0.00000000  0.25000000  0.81250000       0.001
   0.00000000  0.18750000  0.84375000       0.001
   0.00000000  0.12500000  0.87500000       0.001
   0.00000000  0.06250000  0.90625000       0.001
   0.00000000  0.00000000  0.93750000       0.001
   0.00000000  0.93750000  0.96875000       0.001
   0.03125000  0.71875000  0.00000000       0.001
   0.03125000  0.65625000  0.03125000       0.003
   0.03125000  0.59375000  0.06250000       0.003
   0.03125000  0.53125000  0.09375000       0.003
   0.03125000  0.46875000  0.12500000       0.003
   0.03125000  0.40625000  0.15625000       0.003
   0.03125000  0.34375000  0.18750000       0.003
   0.03125000  0.28125000  0.21875000       0.003
   0.03125000  0.21875000  0.25000000       0.003
   0.03125000  0.15625000  0.28125000       0.003
   0.03125000  0.09375000  0.31250000       0.003
   0.03125000  0.03125000  0.34375000       0.003
   0.03125000  0.96875000  0.37500000       0.003
   0.03125000  0.90625000  0.40625000       0.003
   0.03125000  0.84375000  0.43750000       0.003
   0.03125000  0.78125000  0.46875000       0.003
   0.03125000  0.71875000  0.50000000       0.003
   0.03125000  0.65625000  0.53125000       0.003
   0.03125000  0.59375000  0.56250000       0.003
   0.03125000  0.53125000  0.59375000       0.003
   0.03125000  0.46875000  0.62500000       0.003
   0.03125000  0.40625000  0.65625000       0.003
   0.03125000  0.34375000  0.68750000       0.003
   0.03125000  0.28125000  0.71875000       0.003
   0.03125000  0.21875000  0.75000000       0.003
   0.03125000  0.15625000  0.78125000       0.003
   0.03125000  0.09375000  0.81250000       0.003
   0.03125000  0.03125000  0.84375000       0.003
   0.03125000  0.96875000  0.87500000       0.003
   0.03125000  0.90625000  0.90625000       0.003
   0.03125000  0.84375000  0.93750000       0.003
   0.06250000  0.56250000  0.00000000       0.001
   0.06250000  0.43750000  0.06250000       0.003
   0.06250000  0.37500000  0.09375000       0.003
   0.06250000  0.31250000  0.12500000       0.003
   0.06250000  0.25000000  0.15625000       0.003
   0.06250000  0.18750000  0.18750000       0.003
   0.06250000  0.12500000  0.21875000       0.003
   0.06250000  0.06250000  0.25000000       0.003
   0.06250000  0.00000000  0.28125000       0.003
   0.06250000  0.93750000  0.31250000       0.003
   0.06250000  0.87500000  0.34375000       0.003
   0.06250000  0.81250000  0.37500000       0.003
   0.06250000  0.75000000  0.40625000       0.003
   0.06250000  0.68750000  0.43750000       0.003
   0.06250000  0.62500000  0.46875000       0.003
   0.06250000  0.56250000  0.50000000       0.003
   0.06250000  0.50000000  0.53125000       0.003
   0.06250000  0.43750000  0.56250000       0.003
   0.06250000  0.37500000  0.59375000       0.003
   0.06250000  0.31250000  0.62500000       0.003
   0.06250000  0.25000000  0.65625000       0.003
   0.06250000  0.18750000  0.68750000       0.003
   0.06250000  0.12500000  0.71875000       0.003
   0.06250000  0.06250000  0.75000000       0.003
   0.06250000  0.00000000  0.78125000       0.003
   0.06250000  0.93750000  0.81250000       0.003
   0.06250000  0.87500000  0.84375000       0.003
   0.06250000  0.81250000  0.87500000       0.003
   0.06250000  0.75000000  0.90625000       0.003
   0.09375000  0.34375000  0.03125000       0.003
   0.09375000  0.28125000  0.06250000       0.003
   0.09375000  0.21875000  0.09375000       0.003
   0.09375000  0.15625000  0.12500000       0.003
   0.09375000  0.09375000  0.15625000       0.003
   0.09375000  0.03125000  0.18750000       0.003
   0.09375000  0.96875000  0.21875000       0.003
   0.09375000  0.90625000  0.25000000       0.003
   0.09375000  0.84375000  0.28125000       0.003
   0.09375000  0.78125000  0.31250000       0.003
   0.09375000  0.71875000  0.34375000       0.003
   0.09375000  0.65625000  0.37500000       0.003
   0.09375000  0.59375000  0.40625000       0.003
   0.09375000  0.53125000  0.43750000       0.003
   0.12500000  0.00000000  0.12500000       0.003
   0.12500000  0.93750000  0.15625000       0.003
   0.12500000  0.87500000  0.18750000       0.003
   0.12500000  0.81250000  0.21875000       0.003
   0.12500000  0.75000000  0.25000000       0.003
   0.12500000  0.68750000  0.28125000       0.003
   0.12500000  0.62500000  0.31250000       0.003
   0.12500000  0.56250000  0.34375000       0.003
   0.12500000  0.50000000  0.37500000       0.003
   0.12500000  0.43750000  0.40625000       0.003
   0.12500000  0.37500000  0.43750000       0.003
   0.12500000  0.31250000  0.46875000       0.003
   0.12500000  0.25000000  0.50000000       0.003
   0.12500000  0.18750000  0.53125000       0.003
   0.12500000  0.12500000  0.56250000       0.003
   0.12500000  0.06250000  0.59375000       0.003
   0.12500000  0.00000000  0.62500000       0.003
   0.12500000  0.93750000  0.65625000       0.003
   0.12500000  0.87500000  0.68750000       0.003
   0.12500000  0.81250000  0.71875000       0.003
   0.12500000  0.68750000  0.78125000       0.003
   0.12500000  0.62500000  0.81250000       0.003
   0.12500000  0.56250000  0.84375000       0.003
   0.15625000  0.09375000  0.00000000       0.001
   0.15625000  0.03125000  0.03125000       0.003
   0.15625000  0.90625000  0.09375000       0.003
   0.15625000  0.84375000  0.12500000       0.003
   0.15625000  0.78125000  0.15625000       0.003
   0.15625000  0.71875000  0.18750000       0.003
   0.15625000  0.65625000  0.21875000       0.003
   0.15625000  0.59375000  0.25000000       0.003
   0.15625000  0.53125000  0.28125000       0.003
   0.15625000  0.46875000  0.31250000       0.003
   0.15625000  0.40625000  0.34375000       0.003
   0.15625000  0.34375000  0.37500000       0.003
   0.15625000  0.28125000  0.40625000       0.003
   0.15625000  0.21875000  0.43750000       0.003
   0.15625000  0.15625000  0.46875000       0.003
   0.15625000  0.09375000  0.50000000       0.003
   0.15625000  0.03125000  0.53125000       0.003
   0.15625000  0.96875000  0.56250000       0.003
   0.15625000  0.90625000  0.59375000       0.003
   0.15625000  0.84375000  0.62500000       0.003
   0.15625000  0.78125000  0.65625000       0.003
   0.15625000  0.71875000  0.68750000       0.003
   0.15625000  0.59375000  0.75000000       0.003
   0.15625000  0.53125000  0.78125000       0.003
   0.15625000  0.46875000  0.81250000       0.003
   0.18750000  0.93750000  0.00000000       0.001
   0.18750000  0.81250000  0.06250000       0.003
   0.18750000  0.75000000  0.09375000       0.003
   0.18750000  0.68750000  0.12500000       0.003
   0.18750000  0.56250000  0.18750000       0.003
   0.18750000  0.50000000  0.21875000       0.003
   0.18750000  0.43750000  0.25000000       0.003
   0.18750000  0.37500000  0.28125000       0.003
   0.18750000  0.31250000  0.31250000       0.003
   0.18750000  0.25000000  0.34375000       0.003
   0.18750000  0.18750000  0.37500000       0.003
   0.18750000  0.12500000  0.40625000       0.003
   0.18750000  0.06250000  0.43750000       0.003
   0.18750000  0.00000000  0.46875000       0.003
   0.18750000  0.93750000  0.50000000       0.003
   0.18750000  0.87500000  0.53125000       0.003
   0.18750000  0.81250000  0.56250000       0.003
   0.18750000  0.75000000  0.59375000       0.003
   0.18750000  0.68750000  0.62500000       0.003
   0.18750000  0.62500000  0.65625000       0.003
   0.18750000  0.50000000  0.71875000       0.003
   0.18750000  0.43750000  0.75000000       0.003
   0.18750000  0.37500000  0.78125000       0.003
   0.21875000  0.71875000  0.03125000       0.003
   0.21875000  0.65625000  0.06250000       0.003
   0.21875000  0.59375000  0.09375000       0.003
   0.21875000  0.46875000  0.15625000       0.003
   0.21875000  0.40625000  0.18750000       0.003
   0.21875000  0.34375000  0.21875000       0.003
   0.21875000  0.28125000  0.25000000       0.003
   0.21875000  0.21875000  0.28125000       0.003
   0.21875000  0.15625000  0.31250000       0.003
   0.21875000  0.09375000  0.34375000       0.003
   0.21875000  0.03125000  0.37500000       0.003
   0.25000000  0.12500000  0.25000000       0.003
   0.25000000  0.06250000  0.28125000       0.003
   0.25000000  0.00000000  0.31250000       0.003
   0.25000000  0.93750000  0.34375000       0.003
   0.25000000  0.87500000  0.37500000       0.003
   0.25000000  0.81250000  0.40625000       0.003
   0.25000000  0.75000000  0.43750000       0.003
   0.25000000  0.68750000  0.46875000       0.003
   0.25000000  0.56250000  0.53125000       0.003
   0.25000000  0.50000000  0.56250000       0.003
   0.25000000  0.43750000  0.59375000       0.003
   0.25000000  0.31250000  0.65625000       0.003
   0.25000000  0.25000000  0.68750000       0.003
   0.25000000  0.18750000  0.71875000       0.003
   0.28125000  0.46875000  0.00000000       0.001
   0.28125000  0.40625000  0.03125000       0.003
   0.28125000  0.28125000  0.09375000       0.003
   0.28125000  0.21875000  0.12500000       0.003
   0.28125000  0.15625000  0.15625000       0.003
   0.28125000  0.03125000  0.21875000       0.003
   0.28125000  0.96875000  0.25000000       0.003
   0.28125000  0.90625000  0.28125000       0.003
   0.28125000  0.84375000  0.31250000       0.003
   0.28125000  0.78125000  0.34375000       0.003
   0.28125000  0.71875000  0.37500000       0.003
   0.28125000  0.65625000  0.40625000       0.003
   0.28125000  0.59375000  0.43750000       0.003
   0.28125000  0.46875000  0.50000000       0.003
   0.28125000  0.40625000  0.53125000       0.003
   0.28125000  0.34375000  0.56250000       0.003
   0.28125000  0.21875000  0.62500000       0.003
   0.28125000  0.15625000  0.65625000       0.003
   0.28125000  0.09375000  0.68750000       0.003
   0.31250000  0.31250000  0.00000000       0.001
   0.31250000  0.18750000  0.06250000       0.003
   0.31250000  0.12500000  0.09375000       0.003
   0.31250000  0.06250000  0.12500000       0.003
   0.31250000  0.93750000  0.18750000       0.003
   0.31250000  0.87500000  0.21875000       0.003
   0.31250000  0.81250000  0.25000000       0.003
   0.31250000  0.68750000  0.31250000       0.003
   0.31250000  0.62500000  0.34375000       0.003
   0.31250000  0.56250000  0.37500000       0.003
   0.31250000  0.50000000  0.40625000       0.003
   0.31250000  0.37500000  0.46875000       0.003
   0.31250000  0.31250000  0.50000000       0.003
   0.31250000  0.25000000  0.53125000       0.003
   0.31250000  0.12500000  0.59375000       0.003
   0.31250000  0.06250000  0.62500000       0.003
   0.31250000  0.00000000  0.65625000       0.003
   0.34375000  0.09375000  0.03125000       0.003
   0.34375000  0.03125000  0.06250000       0.003
   0.34375000  0.96875000  0.09375000       0.003
   0.34375000  0.84375000  0.15625000       0.003
   0.34375000  0.78125000  0.18750000       0.003
   0.34375000  0.71875000  0.21875000       0.003
   0.34375000  0.59375000  0.28125000       0.003
   0.34375000  0.53125000  0.31250000       0.003
   0.37500000  0.18750000  0.40625000       0.003
   0.37500000  0.12500000  0.43750000       0.003
   0.37500000  0.06250000  0.46875000       0.003
   0.37500000  0.93750000  0.53125000       0.003
   0.37500000  0.87500000  0.56250000       0.003
   0.37500000  0.81250000  0.59375000       0.003
   0.40625000  0.84375000  0.00000000       0.001
   0.40625000  0.78125000  0.03125000       0.003
   0.40625000  0.65625000  0.09375000       0.003
   0.40625000  0.59375000  0.12500000       0.003
   0.40625000  0.53125000  0.15625000       0.003
   0.40625000  0.34375000  0.25000000       0.003
   0.40625000  0.28125000  0.28125000       0.003
   0.40625000  0.09375000  0.37500000       0.003
   0.40625000  0.03125000  0.40625000       0.003
   0.40625000  0.96875000  0.43750000       0.003
   0.40625000  0.84375000  0.50000000       0.003
   0.40625000  0.78125000  0.53125000       0.003
   0.40625000  0.71875000  0.56250000       0.003
   0.43750000  0.68750000  0.00000000       0.001
   0.43750000  0.56250000  0.06250000       0.003
   0.43750000  0.50000000  0.09375000       0.003
   0.43750000  0.43750000  0.12500000       0.003
   0.43750000  0.25000000  0.21875000       0.003
   0.43750000  0.18750000  0.25000000       0.003
   0.43750000  0.00000000  0.34375000       0.003
   0.43750000  0.93750000  0.37500000       0.003
   0.43750000  0.75000000  0.46875000       0.003
   0.43750000  0.68750000  0.50000000       0.003
   0.43750000  0.62500000  0.53125000       0.003
   0.46875000  0.46875000  0.03125000       0.003
   0.46875000  0.40625000  0.06250000       0.003
   0.46875000  0.34375000  0.09375000       0.003
   0.46875000  0.15625000  0.18750000       0.003
   0.46875000  0.09375000  0.21875000       0.003
   0.53125000  0.21875000  0.00000000       0.001
   0.53125000  0.15625000  0.03125000       0.003
   0.53125000  0.96875000  0.12500000       0.003
   0.53125000  0.90625000  0.15625000       0.003
   0.53125000  0.71875000  0.25000000       0.003
   0.53125000  0.65625000  0.28125000       0.003
   0.53125000  0.46875000  0.37500000       0.003
   0.53125000  0.40625000  0.40625000       0.003
   0.56250000  0.06250000  0.00000000       0.001
   0.56250000  0.87500000  0.09375000       0.003
   0.56250000  0.81250000  0.12500000       0.003
   0.56250000  0.62500000  0.21875000       0.003
   0.56250000  0.56250000  0.25000000       0.003
   0.56250000  0.37500000  0.34375000       0.003
   0.56250000  0.31250000  0.37500000       0.003
   0.59375000  0.78125000  0.06250000       0.003
   0.59375000  0.71875000  0.09375000       0.003
   0.59375000  0.53125000  0.18750000       0.003
   0.65625000  0.59375000  0.00000000       0.001
   0.65625000  0.53125000  0.03125000       0.003
   0.65625000  0.34375000  0.12500000       0.003
   0.65625000  0.28125000  0.15625000       0.003
   0.65625000  0.09375000  0.25000000       0.003
   0.65625000  0.03125000  0.28125000       0.003
   0.68750000  0.43750000  0.00000000       0.001
   0.68750000  0.25000000  0.09375000       0.003
   0.68750000  0.18750000  0.12500000       0.003
   0.68750000  0.00000000  0.21875000       0.003
   0.68750000  0.93750000  0.25000000       0.003
   0.71875000  0.15625000  0.06250000       0.003
   0.71875000  0.09375000  0.09375000       0.003
   0.78125000  0.96875000  0.00000000       0.001
   0.78125000  0.90625000  0.03125000       0.003
   0.78125000  0.71875000  0.12500000       0.003
   0.78125000  0.65625000  0.15625000       0.003
   0.81250000  0.81250000  0.00000000       0.001
   0.81250000  0.62500000  0.09375000       0.003
   0.81250000  0.56250000  0.12500000       0.003
   0.84375000  0.53125000  0.06250000       0.003
   0.90625000  0.34375000  0.00000000       0.001
   0.90625000  0.28125000  0.03125000       0.003
   0.93750000  0.18750000  0.00000000       0.001
   0.00000000  0.37500000  0.00000000       0.000
   0.00000000  0.18750000  0.09375000       0.001
   0.00000000  0.12500000  0.12500000       0.001
   0.00000000  0.93750000  0.21875000       0.001
   0.00000000  0.87500000  0.25000000       0.001
   0.00000000  0.68750000  0.34375000       0.001
   0.00000000  0.62500000  0.37500000       0.001
   0.00000000  0.43750000  0.46875000       0.001
   0.00000000  0.37500000  0.50000000       0.001
   0.00000000  0.18750000  0.59375000       0.001
   0.00000000  0.12500000  0.62500000       0.001
   0.00000000  0.93750000  0.71875000       0.001
   0.00000000  0.87500000  0.75000000       0.001
   0.00000000  0.68750000  0.84375000       0.001
   0.00000000  0.62500000  0.87500000       0.001
   0.00000000  0.43750000  0.96875000       0.001
   0.09375000  0.84375000  0.03125000       0.003
   0.09375000  0.65625000  0.12500000       0.003
   0.09375000  0.59375000  0.15625000       0.003
   0.09375000  0.40625000  0.25000000       0.003
   0.09375000  0.34375000  0.28125000       0.003
   0.09375000  0.15625000  0.37500000       0.003
   0.09375000  0.09375000  0.40625000       0.003
   0.12500000  0.50000000  0.12500000       0.003
   0.12500000  0.31250000  0.21875000       0.003
   0.12500000  0.25000000  0.25000000       0.003
   0.12500000  0.06250000  0.34375000       0.003
   0.12500000  1.00000000  0.37500000       0.003
   0.12500000  0.81250000  0.46875000       0.003
   0.12500000  0.75000000  0.50000000       0.003
   0.12500000  0.56250000  0.59375000       0.003
   0.12500000  0.50000000  0.62500000       0.003
   0.12500000  0.31250000  0.71875000       0.003
   0.12500000  0.06250000  0.84375000       0.003
   0.21875000  0.21875000  0.03125000       0.003
   0.21875000  0.96875000  0.15625000       0.003
   0.21875000  0.78125000  0.25000000       0.003
   0.21875000  0.71875000  0.28125000       0.003
   0.21875000  0.53125000  0.37500000       0.003
   0.25000000  0.62500000  0.25000000       0.003
   0.25000000  0.43750000  0.34375000       0.003
   0.25000000  0.37500000  0.37500000       0.003
   0.25000000  0.18750000  0.46875000       0.003
   0.25000000  0.93750000  0.59375000       0.003
   0.25000000  0.68750000  0.71875000       0.003
   0.34375000  0.59375000  0.03125000       0.003
   0.34375000  0.34375000  0.15625000       0.003
   0.34375000  0.09375000  0.28125000       0.003
   0.37500000  0.56250000  0.46875000       0.003
   0.37500000  0.31250000  0.59375000       0.003
   0.46875000  0.96875000  0.03125000       0.003
 
 position of ions in fractional coordinates (direct lattice) 
   0.00000000  0.00000000  0.00000000
   0.50000000  0.50000000  0.00000000
 
 position of ions in cartesian coordinates  (Angst):
   0.00000000  0.00000000  0.00000000
   0.00000000  1.84000000  1.84000000
 


--------------------------------------------------------------------------------------------------------


 k-point  1 :   0.0000 0.8750 0.0000  plane waves:     251
 k-point  2 :   0.0000 0.8125 0.0312  plane waves:     249
 k-point  3 :   0.0000 0.7500 0.0625  plane waves:     250
 k-point  4 :   0.0000 0.6875 0.0938  plane waves:     258
 k-point  5 :   0.0000 0.6250 0.1250  plane waves:     259
 k-point  6 :   0.0000 0.5625 0.1562  plane waves:     257
 k-point  7 :   0.0000 0.5000 0.1875  plane waves:     259
 k-point  8 :   0.0000 0.4375 0.2188  plane waves:     256
 k-point  9 :   0.0000 0.3750 0.2500  plane waves:     254
 k-point 10 :   0.0000 0.3125 0.2812  plane waves:     250
 k-point 11 :   0.0000 0.2500 0.3125  plane waves:     248
 k-point 12 :   0.0000 0.1875 0.3438  plane waves:     250
 k-point 13 :   0.0000 0.1250 0.3750  plane waves:     248
 k-point 14 :   0.0000 0.0625 0.4062  plane waves:     242
 k-point 15 :   0.0000 0.0000 0.4375  plane waves:     239
 k-point 16 :   0.0000 0.9375 0.4688  plane waves:     236
 k-point 17 :   0.0000 0.8750 0.5000  plane waves:     239
 k-point 18 :   0.0000 0.8125 0.5312  plane waves:     241
 k-point 19 :   0.0000 0.7500 0.5625  plane waves:     246
 k-point 20 :   0.0000 0.6875 0.5938  plane waves:     248
 k-point 21 :   0.0000 0.6250 0.6250  plane waves:     244
 k-point 22 :   0.0000 0.5625 0.6562  plane waves:     250
 k-point 23 :   0.0000 0.5000 0.6875  plane waves:     252
 k-point 24 :   0.0000 0.4375 0.7188  plane waves:     256
 k-point 25 :   0.0000 0.3750 0.7500  plane waves:     257
 k-point 26 :   0.0000 0.3125 0.7812  plane waves:     257
 k-point 27 :   0.0000 0.2500 0.8125  plane waves:     255
 k-point 28 :   0.0000 0.1875 0.8438  plane waves:     256
 k-point 29 :   0.0000 0.1250 0.8750  plane waves:     248
 k-point 30 :   0.0000 0.0625 0.9062  plane waves:     248
 k-point 31 :   0.0000 0.0000 0.9375  plane waves:     251
 k-point 32 :   0.0000 0.9375 0.9688  plane waves:     245
 k-point 33 :   0.0312 0.7188 0.0000  plane waves:     247
 k-point 34 :   0.0312 0.6562 0.0312  plane waves:     256
 k-point 35 :   0.0312 0.5938 0.0625  plane waves:     259
 k-point 36 :   0.0312 0.5312 0.0938  plane waves:     260
 k-point 37 :   0.0312 0.4688 0.1250  plane waves:     259
 k-point 38 :   0.0312 0.4062 0.1562  plane waves:     257
 k-point 39 :   0.0312 0.3438 0.1875  plane waves:     256
 k-point 40 :   0.0312 0.2812 0.2188  plane waves:     256
 k-point 41 :   0.0312 0.2188 0.2500  plane waves:     252
 k-point 42 :   0.0312 0.1562 0.2812  plane waves:     251
 k-point 43 :   0.0312 0.0938 0.3125  plane waves:     252
 k-point 44 :   0.0312 0.0312 0.3438  plane waves:     243
 k-point 45 :   0.0312 0.9688 0.3750  plane waves:     243
 k-point 46 :   0.0312 0.9062 0.4062  plane waves:     242
 k-point 47 :   0.0312 0.8438 0.4375  plane waves:     243
 k-point 48 :   0.0312 0.7812 0.4688  plane waves:     242
 k-point 49 :   0.0312 0.7188 0.5000  plane waves:     243
 k-point 50 :   0.0312 0.6562 0.5312  plane waves:     247
 k-point 51 :   0.0312 0.5938 0.5625  plane waves:     245
 k-point 52 :   0.0312 0.5312 0.5938  plane waves:     248
 k-point 53 :   0.0312 0.4688 0.6250  plane waves:     254
 k-point 54 :   0.0312 0.4062 0.6562  plane waves:     256
 k-point 55 :   0.0312 0.3438 0.6875  plane waves:     257
 k-point 56 :   0.0312 0.2812 0.7188  plane waves:     257
 k-point 57 :   0.0312 0.2188 0.7500  plane waves:     256
 k-point 58 :   0.0312 0.1562 0.7812  plane waves:     253
 k-point 59 :   0.0312 0.0938 0.8125  plane waves:     251
 k-point 60 :   0.0312 0.0312 0.8438  plane waves:     247
 k-point 61 :   0.0312 0.9688 0.8750  plane waves:     248
 k-point 62 :   0.0312 0.9062 0.9062  plane waves:     252
 k-point 63 :   0.0312 0.8438 0.9375  plane waves:     251
 k-point 64 :   0.0625 0.5625 0.0000  plane waves:     260
 k-point 65 :   0.0625 0.4375 0.0625  plane waves:     255
 k-point 66 :   0.0625 0.3750 0.0938  plane waves:     253
 k-point 67 :   0.0625 0.3125 0.1250  plane waves:     253
 k-point 68 :   0.0625 0.2500 0.1562  plane waves:     252
 k-point 69 :   0.0625 0.1875 0.1875  plane waves:     251
 k-point 70 :   0.0625 0.1250 0.2188  plane waves:     251
 k-point 71 :   0.0625 0.0625 0.2500  plane waves:     253
 k-point 72 :   0.0625 0.0000 0.2812  plane waves:     251
 k-point 73 :   0.0625 0.9375 0.3125  plane waves:     247
 k-point 74 :   0.0625 0.8750 0.3438  plane waves:     248
 k-point 75 :   0.0625 0.8125 0.3750  plane waves:     245
 k-point 76 :   0.0625 0.7500 0.4062  plane waves:     245
 k-point 77 :   0.0625 0.6875 0.4375  plane waves:     243
 k-point 78 :   0.0625 0.6250 0.4688  plane waves:     244
 k-point 79 :   0.0625 0.5625 0.5000  plane waves:     245
 k-point 80 :   0.0625 0.5000 0.5312  plane waves:     245
 k-point 81 :   0.0625 0.4375 0.5625  plane waves:     248
 k-point 82 :   0.0625 0.3750 0.5938  plane waves:     251
 k-point 83 :   0.0625 0.3125 0.6250  plane waves:     254
 k-point 84 :   0.0625 0.2500 0.6562  plane waves:     252
 k-point 85 :   0.0625 0.1875 0.6875  plane waves:     252
 k-point 86 :   0.0625 0.1250 0.7188  plane waves:     253
 k-point 87 :   0.0625 0.0625 0.7500  plane waves:     252
 k-point 88 :   0.0625 0.0000 0.7812  plane waves:     249
 k-point 89 :   0.0625 0.9375 0.8125  plane waves:     246
 k-point 90 :   0.0625 0.8750 0.8438  plane waves:     248
 k-point 91 :   0.0625 0.8125 0.8750  plane waves:     251
 k-point 92 :   0.0625 0.7500 0.9062  plane waves:     251
 k-point 93 :   0.0938 0.3438 0.0312  plane waves:     253
 k-point 94 :   0.0938 0.2812 0.0625  plane waves:     250
 k-point 95 :   0.0938 0.2188 0.0938  plane waves:     249
 k-point 96 :   0.0938 0.1562 0.1250  plane waves:     247
 k-point 97 :   0.0938 0.0938 0.1562  plane waves:     249
 k-point 98 :   0.0938 0.0312 0.1875  plane waves:     251
 k-point 99 :   0.0938 0.9688 0.2188  plane waves:     252
 k-point ** :   0.0938 0.9062 0.2500  plane waves:     253
 k-point ** :   0.0938 0.8438 0.2812  plane waves:     250
 k-point ** :   0.0938 0.7812 0.3125  plane waves:     247
 k-point ** :   0.0938 0.7188 0.3438  plane waves:     246
 k-point ** :   0.0938 0.6562 0.3750  plane waves:     244
 k-point ** :   0.0938 0.5938 0.4062  plane waves:     244
 k-point ** :   0.0938 0.5312 0.4375  plane waves:     244
 k-point ** :   0.1250 0.0000 0.1250  plane waves:     248
 k-point ** :   0.1250 0.9375 0.1562  plane waves:     251
 k-point ** :   0.1250 0.8750 0.1875  plane waves:     252
 k-point ** :   0.1250 0.8125 0.2188  plane waves:     253
 k-point ** :   0.1250 0.7500 0.2500  plane waves:     249
 k-point ** :   0.1250 0.6875 0.2812  plane waves:     245
 k-point ** :   0.1250 0.6250 0.3125  plane waves:     245
 k-point ** :   0.1250 0.5625 0.3438  plane waves:     244
 k-point ** :   0.1250 0.5000 0.3750  plane waves:     243
 k-point ** :   0.1250 0.4375 0.4062  plane waves:     241
 k-point ** :   0.1250 0.3750 0.4375  plane waves:     244
 k-point ** :   0.1250 0.3125 0.4688  plane waves:     246
 k-point ** :   0.1250 0.2500 0.5000  plane waves:     243
 k-point ** :   0.1250 0.1875 0.5312  plane waves:     244
 k-point ** :   0.1250 0.1250 0.5625  plane waves:     245
 k-point ** :   0.1250 0.0625 0.5938  plane waves:     252
 k-point ** :   0.1250 0.0000 0.6250  plane waves:     251
 k-point ** :   0.1250 0.9375 0.6562  plane waves:     250
 k-point ** :   0.1250 0.8750 0.6875  plane waves:     250
 k-point ** :   0.1250 0.8125 0.7188  plane waves:     251
 k-point ** :   0.1250 0.6875 0.7812  plane waves:     252
 k-point ** :   0.1250 0.6250 0.8125  plane waves:     252
 k-point ** :   0.1250 0.5625 0.8438  plane waves:     260
 k-point ** :   0.1562 0.0938 0.0000  plane waves:     248
 k-point ** :   0.1562 0.0312 0.0312  plane waves:     251
 k-point ** :   0.1562 0.9062 0.0938  plane waves:     254
 k-point ** :   0.1562 0.8438 0.1250  plane waves:     253
 k-point ** :   0.1562 0.7812 0.1562  plane waves:     252
 k-point ** :   0.1562 0.7188 0.1875  plane waves:     251
 k-point ** :   0.1562 0.6562 0.2188  plane waves:     250
 k-point ** :   0.1562 0.5938 0.2500  plane waves:     247
 k-point ** :   0.1562 0.5312 0.2812  plane waves:     244
 k-point ** :   0.1562 0.4688 0.3125  plane waves:     243
 k-point ** :   0.1562 0.4062 0.3438  plane waves:     244
 k-point ** :   0.1562 0.3438 0.3750  plane waves:     243
 k-point ** :   0.1562 0.2812 0.4062  plane waves:     246
 k-point ** :   0.1562 0.2188 0.4375  plane waves:     248
 k-point ** :   0.1562 0.1562 0.4688  plane waves:     244
 k-point ** :   0.1562 0.0938 0.5000  plane waves:     243
 k-point ** :   0.1562 0.0312 0.5312  plane waves:     247
 k-point ** :   0.1562 0.9688 0.5625  plane waves:     247
 k-point ** :   0.1562 0.9062 0.5938  plane waves:     248
 k-point ** :   0.1562 0.8438 0.6250  plane waves:     248
 k-point ** :   0.1562 0.7812 0.6562  plane waves:     250
 k-point ** :   0.1562 0.7188 0.6875  plane waves:     250
 k-point ** :   0.1562 0.5938 0.7500  plane waves:     254
 k-point ** :   0.1562 0.5312 0.7812  plane waves:     257
 k-point ** :   0.1562 0.4688 0.8125  plane waves:     259
 k-point ** :   0.1875 0.9375 0.0000  plane waves:     253
 k-point ** :   0.1875 0.8125 0.0625  plane waves:     254
 k-point ** :   0.1875 0.7500 0.0938  plane waves:     256
 k-point ** :   0.1875 0.6875 0.1250  plane waves:     254
 k-point ** :   0.1875 0.5625 0.1875  plane waves:     248
 k-point ** :   0.1875 0.5000 0.2188  plane waves:     248
 k-point ** :   0.1875 0.4375 0.2500  plane waves:     245
 k-point ** :   0.1875 0.3750 0.2812  plane waves:     244
 k-point ** :   0.1875 0.3125 0.3125  plane waves:     239
 k-point ** :   0.1875 0.2500 0.3438  plane waves:     243
 k-point ** :   0.1875 0.1875 0.3750  plane waves:     246
 k-point ** :   0.1875 0.1250 0.4062  plane waves:     246
 k-point ** :   0.1875 0.0625 0.4375  plane waves:     244
 k-point ** :   0.1875 0.0000 0.4688  plane waves:     244
 k-point ** :   0.1875 0.9375 0.5000  plane waves:     246
 k-point ** :   0.1875 0.8750 0.5312  plane waves:     244
 k-point ** :   0.1875 0.8125 0.5625  plane waves:     244
 k-point ** :   0.1875 0.7500 0.5938  plane waves:     246
 k-point ** :   0.1875 0.6875 0.6250  plane waves:     249
 k-point ** :   0.1875 0.6250 0.6562  plane waves:     252
 k-point ** :   0.1875 0.5000 0.7188  plane waves:     255
 k-point ** :   0.1875 0.4375 0.7500  plane waves:     258
 k-point ** :   0.1875 0.3750 0.7812  plane waves:     258
 k-point ** :   0.2188 0.7188 0.0312  plane waves:     255
 k-point ** :   0.2188 0.6562 0.0625  plane waves:     253
 k-point ** :   0.2188 0.5938 0.0938  plane waves:     252
 k-point ** :   0.2188 0.4688 0.1562  plane waves:     251
 k-point ** :   0.2188 0.4062 0.1875  plane waves:     251
 k-point ** :   0.2188 0.3438 0.2188  plane waves:     241
 k-point ** :   0.2188 0.2812 0.2500  plane waves:     243
 k-point ** :   0.2188 0.2188 0.2812  plane waves:     243
 k-point ** :   0.2188 0.1562 0.3125  plane waves:     247
 k-point ** :   0.2188 0.0938 0.3438  plane waves:     247
 k-point ** :   0.2188 0.0312 0.3750  plane waves:     243
 k-point ** :   0.2500 0.1250 0.2500  plane waves:     239
 k-point ** :   0.2500 0.0625 0.2812  plane waves:     243
 k-point ** :   0.2500 0.0000 0.3125  plane waves:     243
 k-point ** :   0.2500 0.9375 0.3438  plane waves:     241
 k-point ** :   0.2500 0.8750 0.3750  plane waves:     246
 k-point ** :   0.2500 0.8125 0.4062  plane waves:     245
 k-point ** :   0.2500 0.7500 0.4375  plane waves:     239
 k-point ** :   0.2500 0.6875 0.4688  plane waves:     242
 k-point ** :   0.2500 0.5625 0.5312  plane waves:     243
 k-point ** :   0.2500 0.5000 0.5625  plane waves:     248
 k-point ** :   0.2500 0.4375 0.5938  plane waves:     251
 k-point ** :   0.2500 0.3125 0.6562  plane waves:     252
 k-point ** :   0.2500 0.2500 0.6875  plane waves:     252
 k-point ** :   0.2500 0.1875 0.7188  plane waves:     254
 k-point ** :   0.2812 0.4688 0.0000  plane waves:     253
 k-point ** :   0.2812 0.4062 0.0312  plane waves:     251
 k-point ** :   0.2812 0.2812 0.0938  plane waves:     253
 k-point ** :   0.2812 0.2188 0.1250  plane waves:     248
 k-point ** :   0.2812 0.1562 0.1562  plane waves:     245
 k-point ** :   0.2812 0.0312 0.2188  plane waves:     244
 k-point ** :   0.2812 0.9688 0.2500  plane waves:     242
 k-point ** :   0.2812 0.9062 0.2812  plane waves:     243
 k-point ** :   0.2812 0.8438 0.3125  plane waves:     243
 k-point ** :   0.2812 0.7812 0.3438  plane waves:     243
 k-point ** :   0.2812 0.7188 0.3750  plane waves:     241
 k-point ** :   0.2812 0.6562 0.4062  plane waves:     239
 k-point ** :   0.2812 0.5938 0.4375  plane waves:     244
 k-point ** :   0.2812 0.4688 0.5000  plane waves:     245
 k-point ** :   0.2812 0.4062 0.5312  plane waves:     246
 k-point ** :   0.2812 0.3438 0.5625  plane waves:     246
 k-point ** :   0.2812 0.2188 0.6250  plane waves:     252
 k-point ** :   0.2812 0.1562 0.6562  plane waves:     252
 k-point ** :   0.2812 0.0938 0.6875  plane waves:     251
 k-point ** :   0.3125 0.3125 0.0000  plane waves:     250
 k-point ** :   0.3125 0.1875 0.0625  plane waves:     250
 k-point ** :   0.3125 0.1250 0.0938  plane waves:     247
 k-point ** :   0.3125 0.0625 0.1250  plane waves:     247
 k-point ** :   0.3125 0.9375 0.1875  plane waves:     243
 k-point ** :   0.3125 0.8750 0.2188  plane waves:     244
 k-point ** :   0.3125 0.8125 0.2500  plane waves:     245
 k-point ** :   0.3125 0.6875 0.3125  plane waves:     239
 k-point ** :   0.3125 0.6250 0.3438  plane waves:     241
 k-point ** :   0.3125 0.5625 0.3750  plane waves:     244
 k-point ** :   0.3125 0.5000 0.4062  plane waves:     242
 k-point ** :   0.3125 0.3750 0.4688  plane waves:     245
 k-point ** :   0.3125 0.3125 0.5000  plane waves:     247
 k-point ** :   0.3125 0.2500 0.5312  plane waves:     244
 k-point ** :   0.3125 0.1250 0.5938  plane waves:     247
 k-point ** :   0.3125 0.0625 0.6250  plane waves:     251
 k-point ** :   0.3125 0.0000 0.6562  plane waves:     250
 k-point ** :   0.3438 0.0938 0.0312  plane waves:     250
 k-point ** :   0.3438 0.0312 0.0625  plane waves:     247
 k-point ** :   0.3438 0.9688 0.0938  plane waves:     247
 k-point ** :   0.3438 0.8438 0.1562  plane waves:     244
 k-point ** :   0.3438 0.7812 0.1875  plane waves:     247
 k-point ** :   0.3438 0.7188 0.2188  plane waves:     248
 k-point ** :   0.3438 0.5938 0.2812  plane waves:     241
 k-point ** :   0.3438 0.5312 0.3125  plane waves:     243
 k-point ** :   0.3750 0.1875 0.4062  plane waves:     247
 k-point ** :   0.3750 0.1250 0.4375  plane waves:     247
 k-point ** :   0.3750 0.0625 0.4688  plane waves:     242
 k-point ** :   0.3750 0.9375 0.5312  plane waves:     245
 k-point ** :   0.3750 0.8750 0.5625  plane waves:     247
 k-point ** :   0.3750 0.8125 0.5938  plane waves:     249
 k-point ** :   0.4062 0.8438 0.0000  plane waves:     247
 k-point ** :   0.4062 0.7812 0.0312  plane waves:     248
 k-point ** :   0.4062 0.6562 0.0938  plane waves:     242
 k-point ** :   0.4062 0.5938 0.1250  plane waves:     241
 k-point ** :   0.4062 0.5312 0.1562  plane waves:     244
 k-point ** :   0.4062 0.3438 0.2500  plane waves:     242
 k-point ** :   0.4062 0.2812 0.2812  plane waves:     240
 k-point ** :   0.4062 0.0938 0.3750  plane waves:     245
 k-point ** :   0.4062 0.0312 0.4062  plane waves:     246
 k-point ** :   0.4062 0.9688 0.4375  plane waves:     241
 k-point ** :   0.4062 0.8438 0.5000  plane waves:     245
 k-point ** :   0.4062 0.7812 0.5312  plane waves:     245
 k-point ** :   0.4062 0.7188 0.5625  plane waves:     247
 k-point ** :   0.4375 0.6875 0.0000  plane waves:     248
 k-point ** :   0.4375 0.5625 0.0625  plane waves:     239
 k-point ** :   0.4375 0.5000 0.0938  plane waves:     243
 k-point ** :   0.4375 0.4375 0.1250  plane waves:     246
 k-point ** :   0.4375 0.2500 0.2188  plane waves:     244
 k-point ** :   0.4375 0.1875 0.2500  plane waves:     243
 k-point ** :   0.4375 0.0000 0.3438  plane waves:     240
 k-point ** :   0.4375 0.9375 0.3750  plane waves:     241
 k-point ** :   0.4375 0.7500 0.4688  plane waves:     246
 k-point ** :   0.4375 0.6875 0.5000  plane waves:     243
 k-point ** :   0.4375 0.6250 0.5312  plane waves:     242
 k-point ** :   0.4688 0.4688 0.0312  plane waves:     236
 k-point ** :   0.4688 0.4062 0.0625  plane waves:     242
 k-point ** :   0.4688 0.3438 0.0938  plane waves:     243
 k-point ** :   0.4688 0.1562 0.1875  plane waves:     242
 k-point ** :   0.4688 0.0938 0.2188  plane waves:     243
 k-point ** :   0.5312 0.2188 0.0000  plane waves:     245
 k-point ** :   0.5312 0.1562 0.0312  plane waves:     247
 k-point ** :   0.5312 0.9688 0.1250  plane waves:     243
 k-point ** :   0.5312 0.9062 0.1562  plane waves:     248
 k-point ** :   0.5312 0.7188 0.2500  plane waves:     244
 k-point ** :   0.5312 0.6562 0.2812  plane waves:     245
 k-point ** :   0.5312 0.4688 0.3750  plane waves:     242
 k-point ** :   0.5312 0.4062 0.4062  plane waves:     241
 k-point ** :   0.5625 0.0625 0.0000  plane waves:     247
 k-point ** :   0.5625 0.8750 0.0938  plane waves:     248
 k-point ** :   0.5625 0.8125 0.1250  plane waves:     249
 k-point ** :   0.5625 0.6250 0.2188  plane waves:     246
 k-point ** :   0.5625 0.5625 0.2500  plane waves:     247
 k-point ** :   0.5625 0.3750 0.3438  plane waves:     246
 k-point ** :   0.5625 0.3125 0.3750  plane waves:     244
 k-point ** :   0.5938 0.7812 0.0625  plane waves:     247
 k-point ** :   0.5938 0.7188 0.0938  plane waves:     249
 k-point ** :   0.5938 0.5312 0.1875  plane waves:     247
 k-point ** :   0.6562 0.5938 0.0000  plane waves:     244
 k-point ** :   0.6562 0.5312 0.0312  plane waves:     249
 k-point ** :   0.6562 0.3438 0.1250  plane waves:     253
 k-point ** :   0.6562 0.2812 0.1562  plane waves:     251
 k-point ** :   0.6562 0.0938 0.2500  plane waves:     251
 k-point ** :   0.6562 0.0312 0.2812  plane waves:     251
 k-point ** :   0.6875 0.4375 0.0000  plane waves:     257
 k-point ** :   0.6875 0.2500 0.0938  plane waves:     255
 k-point ** :   0.6875 0.1875 0.1250  plane waves:     251
 k-point ** :   0.6875 0.0000 0.2188  plane waves:     253
 k-point ** :   0.6875 0.9375 0.2500  plane waves:     252
 k-point ** :   0.7188 0.1562 0.0625  plane waves:     255
 k-point ** :   0.7188 0.0938 0.0938  plane waves:     252
 k-point ** :   0.7812 0.9688 0.0000  plane waves:     254
 k-point ** :   0.7812 0.9062 0.0312  plane waves:     252
 k-point ** :   0.7812 0.7188 0.1250  plane waves:     254
 k-point ** :   0.7812 0.6562 0.1562  plane waves:     256
 k-point ** :   0.8125 0.8125 0.0000  plane waves:     252
 k-point ** :   0.8125 0.6250 0.0938  plane waves:     257
 k-point ** :   0.8125 0.5625 0.1250  plane waves:     259
 k-point ** :   0.8438 0.5312 0.0625  plane waves:     261
 k-point ** :   0.9062 0.3438 0.0000  plane waves:     260
 k-point ** :   0.9062 0.2812 0.0312  plane waves:     252
 k-point ** :   0.9375 0.1875 0.0000  plane waves:     252
 k-point ** :   0.0000 0.3750 0.0000  plane waves:     255
 k-point ** :   0.0000 0.1875 0.0938  plane waves:     249
 k-point ** :   0.0000 0.1250 0.1250  plane waves:     254
 k-point ** :   0.0000 0.9375 0.2188  plane waves:     250
 k-point ** :   0.0000 0.8750 0.2500  plane waves:     255
 k-point ** :   0.0000 0.6875 0.3438  plane waves:     257
 k-point ** :   0.0000 0.6250 0.3750  plane waves:     254
 k-point ** :   0.0000 0.4375 0.4688  plane waves:     243
 k-point ** :   0.0000 0.3750 0.5000  plane waves:     247
 k-point ** :   0.0000 0.1875 0.5938  plane waves:     245
 k-point ** :   0.0000 0.1250 0.6250  plane waves:     246
 k-point ** :   0.0000 0.9375 0.7188  plane waves:     252
 k-point ** :   0.0000 0.8750 0.7500  plane waves:     252
 k-point ** :   0.0000 0.6875 0.8438  plane waves:     257
 k-point ** :   0.0000 0.6250 0.8750  plane waves:     256
 k-point ** :   0.0000 0.4375 0.9688  plane waves:     259
 k-point ** :   0.0938 0.8438 0.0312  plane waves:     250
 k-point ** :   0.0938 0.6562 0.1250  plane waves:     262
 k-point ** :   0.0938 0.5938 0.1562  plane waves:     255
 k-point ** :   0.0938 0.4062 0.2500  plane waves:     253
 k-point ** :   0.0938 0.3438 0.2812  plane waves:     251
 k-point ** :   0.0938 0.1562 0.3750  plane waves:     245
 k-point ** :   0.0938 0.0938 0.4062  plane waves:     242
 k-point ** :   0.1250 0.5000 0.1250  plane waves:     255
 k-point ** :   0.1250 0.3125 0.2188  plane waves:     252
 k-point ** :   0.1250 0.2500 0.2500  plane waves:     251
 k-point ** :   0.1250 0.0625 0.3438  plane waves:     247
[...]
  band No.  band energies     occupation 
      1       4.2358      2.00000
      2       4.4761      2.00000
      3       4.9398      2.00000
      4       6.2371      2.00000
      5       6.6867      2.00000
      6       7.0561      2.00002
      7       7.7675      0.69601
      8       8.5994     -0.00000
      9       9.4130     -0.00000
     10       9.6875     -0.00000
     11      11.6509     -0.00000

 k-point   353 :       0.1250    0.7500    0.5000
  band No.  band energies     occupation 
      1       4.3603      2.00000
      2       4.6220      2.00000
      3       5.1431      2.00000
      4       6.1264      2.00000
      5       6.4699      2.00000
      6       6.8946      2.00000
      7       7.4588      2.06621
      8       8.3402     -0.00014
      9       9.3938     -0.00000
     10       9.4387     -0.00000
     11      11.6296     -0.00000

 k-point   354 :       0.1250    0.5625    0.5938
  band No.  band energies     occupation 
      1       3.8266      2.00000
      2       5.2710      2.00000
      3       5.3570      2.00000
      4       5.8432      2.00000
      5       6.0491      2.00000
      6       6.5440      2.00000
      7       7.6006      1.88370
      8       8.0841     -0.03158
      9       8.6539     -0.00000
     10       9.2790     -0.00000
     11      10.8633     -0.00000

 k-point   355 :       0.1250    0.5000    0.6250
  band No.  band energies     occupation 
      1       3.5975      2.00000
      2       5.1162      2.00000
      3       5.4063      2.00000
      4       5.7068      2.00000
      5       6.1820      2.00000
      6       6.6728      2.00000
      7       7.6027      1.87547
      8       8.0757     -0.03506
      9       8.4591     -0.00000
     10       9.4019     -0.00000
     11      10.5468     -0.00000

 k-point   356 :       0.1250    0.3125    0.7188
  band No.  band energies     occupation 
      1       3.2051      2.00000
      2       4.1388      2.00000
      3       5.5113      2.00000
      4       5.6784      2.00000
      5       6.5761      2.00000
      6       6.8825      2.00000
      7       7.2393      2.00278
      8       7.5490      2.02605
      9       8.7469     -0.00000
     10       9.5791     -0.00000
     11       9.8436     -0.00000

 k-point   357 :       0.1250    0.0625    0.8438
  band No.  band energies     occupation 
      1       0.9598      2.00000
      2       4.4286      2.00000
      3       6.0530      2.00000
      4       6.3728      2.00000
      5       6.5928      2.00000
      6       6.8649      2.00000
      7       7.0330      2.00001
      8       7.6158      1.81786
      9       8.2181     -0.00307
     10       8.8779     -0.00000
     11       9.9689     -0.00000

 k-point   358 :       0.2188    0.2188    0.0312
  band No.  band energies     occupation 
      1       1.9753      2.00000
      2       4.7981      2.00000
      3       5.4878      2.00000
      4       6.0356      2.00000
      5       6.8174      2.00000
      6       7.0850      2.00005
      7       7.1415      2.00025
      8       7.2798      2.00643
      9       8.4636     -0.00000
     10       9.4619     -0.00000
     11      10.0321     -0.00000

 k-point   359 :       0.2188    0.9688    0.1562
  band No.  band energies     occupation 
      1       3.4036      2.00000
      2       5.1392      2.00000
      3       5.5337      2.00000
      4       5.6809      2.00000
      5       6.3050      2.00000
      6       6.5869      2.00000
      7       7.6228      1.78339
      8       7.9846     -0.07036
      9       8.2567     -0.00128
     10       9.3928     -0.00000
     11      10.5909     -0.00000

 k-point   360 :       0.2188    0.7812    0.2500
  band No.  band energies     occupation 
      1       4.3712      2.00000
      2       4.7208      2.00000
      3       5.2423      2.00000
      4       5.5340      2.00000
      5       6.3893      2.00000
      6       7.3715      2.02906
      7       7.5591      2.00745
      8       8.4627     -0.00000
      9       8.7536     -0.00000
     10      10.1214     -0.00000
     11      10.9927     -0.00000

 k-point   361 :       0.2188    0.7188    0.2812
  band No.  band energies     occupation 
      1       4.4918      2.00000
      2       4.8161      2.00000
      3       5.2271      2.00000
      4       5.5293      2.00000
      5       6.3606      2.00000
      6       7.2474      2.00332
      7       7.7694      0.68101
      8       8.6162     -0.00000
      9       8.6699     -0.00000
     10      10.0679     -0.00000
     11      11.4231     -0.00000

 k-point   362 :       0.2188    0.5312    0.3750
  band No.  band energies     occupation 
      1       5.0817      2.00000
      2       5.2802      2.00000
      3       5.4599      2.00000
      4       5.7217      2.00000
      5       5.8560      2.00000
      6       6.3371      2.00000
      7       7.7488      0.84962
      8       8.6956     -0.00000
      9       9.1240     -0.00000
     10       9.1933     -0.00000
     11      12.9229     -0.00000

 k-point   363 :       0.2500    0.6250    0.2500
  band No.  band energies     occupation 
      1       4.5269      2.00000
      2       4.8422      2.00000
      3       5.2459      2.00000
      4       5.5559      2.00000
      5       6.2791      2.00000
      6       7.2169      2.00168
      7       7.7623      0.73856
      8       8.5206     -0.00000
      9       8.7698     -0.00000
     10       9.7972     -0.00000
     11      11.4628     -0.00000

 k-point   364 :       0.2500    0.4375    0.3438
  band No.  band energies     occupation 
      1       5.1057      2.00000
      2       5.2658      2.00000
      3       5.5917      2.00000
      4       5.6465      2.00000
      5       5.7677      2.00000
      6       6.4822      2.00000
      7       7.8371      0.22710
      8       8.5355     -0.00000
      9       8.9321     -0.00000
     10       9.3322     -0.00000
     11      12.8185     -0.00000

 k-point   365 :       0.2500    0.3750    0.3750
  band No.  band energies     occupation 
      1       5.0422      2.00000
      2       5.2610      2.00000
      3       5.4111      2.00000
      4       5.6201      2.00000
      5       5.9083      2.00000
      6       6.6720      2.00000
      7       7.8544      0.14468
      8       8.5072     -0.00000
      9       8.9261     -0.00000
     10       9.4817     -0.00000
     11      13.2967      0.00000

 k-point   366 :       0.2500    0.1875    0.4688
  band No.  band energies     occupation 
      1       4.6085      2.00000
      2       4.8427      2.00000
      3       5.2160      2.00000
      4       5.5220      2.00000
      5       6.3066      2.00000
      6       7.5116      2.06495
      7       7.6864      1.36711
      8       8.5973     -0.00000
      9       8.6641     -0.00000
     10      10.1082     -0.00000
     11      11.7804     -0.00000

 k-point   367 :       0.2500    0.9375    0.5938
  band No.  band energies     occupation 
      1       3.6895      2.00000
      2       5.1168      2.00000
      3       5.5327      2.00000
      4       5.8468      2.00000
      5       6.2305      2.00000
      6       6.4929      2.00000
      7       7.6383      1.69823
      8       7.9934     -0.06883
      9       8.3386     -0.00015
     10       9.3308     -0.00000
     11      10.9214     -0.00000

 k-point   368 :       0.2500    0.6875    0.7188
  band No.  band energies     occupation 
      1       2.5397      2.00000
      2       4.6329      2.00000
      3       5.2724      2.00000
      4       6.0492      2.00000
      5       6.7919      2.00000
      6       7.1357      2.00021
      7       7.2409      2.00289
      8       7.3689      2.02807
      9       8.7333     -0.00000
     10       9.6879     -0.00000
     11      10.0427     -0.00000

 k-point   369 :       0.3438    0.5938    0.0312
  band No.  band energies     occupation 
      1       3.7884      2.00000
      2       4.2434      2.00000
      3       4.8819      2.00000
      4       6.4497      2.00000
      5       6.7175      2.00000
      6       6.8167      2.00000
      7       7.7107      1.17046
      8       8.7681     -0.00000
      9       9.4402     -0.00000
     10       9.9063     -0.00000
     11      10.2010     -0.00000

 k-point   370 :       0.3438    0.3438    0.1562
  band No.  band energies     occupation 
      1       4.2960      2.00000
      2       4.5859      2.00000
      3       5.1131      2.00000
      4       6.1957      2.00000
      5       6.3966      2.00000
      6       7.1319      2.00019
      7       7.5449      2.03255
      8       8.4279     -0.00001
      9       9.0771     -0.00000
     10       9.4513     -0.00000
     11      11.5912     -0.00000

 k-point   371 :       0.3438    0.0938    0.2812
  band No.  band energies     occupation 
      1       5.2167      2.00000
      2       5.2584      2.00000
      3       5.4035      2.00000
      4       5.5290      2.00000
      5       5.8257      2.00000
      6       6.7506      2.00000
      7       7.9598     -0.06869
      8       8.4352     -0.00001
      9       8.8530     -0.00000
     10       9.5087     -0.00000
     11      13.3405      0.00000

 k-point   372 :       0.3750    0.5625    0.4688
  band No.  band energies     occupation 
      1       4.2257      2.00000
      2       4.4915      2.00000
      3       4.9365      2.00000
      4       6.1945      2.00000
      5       6.6174      2.00000
      6       7.1894      2.00087
      7       7.9790     -0.07084
      8       8.7163     -0.00000
      9       9.0857     -0.00000
     10       9.7088     -0.00000
     11      11.5083     -0.00000

 k-point   373 :       0.3750    0.3125    0.5938
  band No.  band energies     occupation 
      1       3.8931      2.00000
      2       4.4365      2.00000
      3       4.8839      2.00000
      4       6.2978      2.00000
      5       6.8026      2.00000
      6       6.8186      2.00000
      7       7.8151      0.35321
      8       8.7050     -0.00000
      9       9.4629     -0.00000
     10       9.7037     -0.00000
     11      10.7807     -0.00000

 k-point   374 :       0.4688    0.9688    0.0312
  band No.  band energies     occupation 
      1       4.5325      2.00000
      2       4.8677      2.00000
      3       5.2798      2.00000
      4       5.5794      2.00000
      5       6.3361      2.00000
      6       6.9441      2.00000
      7       7.4520      2.06391
      8       8.0571     -0.04328
      9       9.1755     -0.00000
     10      10.7209     -0.00000
     11      11.3676     -0.00000


--------------------------------------------------------------------------------------------------------


 soft charge-density along one line, spin component           1
         0         1         2         3         4         5         6         7         8         9
 total charge-density along one line
 
 pseudopotential strength for first ion, spin component:           1
 -1.518  -0.001   0.019   0.001   0.000  -2.123  -0.001   0.018
 -0.001  -1.518   0.010  -0.001  -0.016  -0.001  -2.123   0.009
  0.019   0.010  -1.503  -0.010  -0.000   0.018   0.009  -2.108
  0.001  -0.001  -0.010  -1.518  -0.016   0.001  -0.001  -0.009
  0.000  -0.016  -0.000  -0.016  -1.503   0.000  -0.016  -0.000
 -2.123  -0.001   0.018   0.001   0.000  -2.669  -0.001   0.017
 -0.001  -2.123   0.009  -0.001  -0.016  -0.001  -2.669   0.009
  0.018   0.009  -2.108  -0.009  -0.000   0.017   0.009  -2.655
  0.001  -0.001  -0.009  -2.123  -0.016   0.001  -0.001  -0.009
  0.000  -0.016  -0.000  -0.016  -2.108   0.000  -0.015  -0.000
  0.004  -0.004  -0.000   0.004   0.000   0.004  -0.004  -0.000
  0.008  -0.008  -0.000   0.008   0.000   0.008  -0.008  -0.000
 -0.000   0.000   0.000  -0.000   0.000  -0.000   0.000   0.000
 -0.000  -0.000   0.000  -0.000   0.000  -0.000  -0.000   0.000
 -0.000  -0.000   0.000   0.000  -0.000  -0.000  -0.000   0.000
 -0.000   0.000   0.000  -0.000   0.000  -0.000   0.000   0.000
 -0.000  -0.000   0.000  -0.000   0.000  -0.000  -0.000   0.000
 -0.000  -0.000   0.000   0.000  -0.000  -0.000  -0.000   0.000
 total augmentation occupancy for first ion, spin component:           1
  1.529   0.115  -0.093  -0.115  -0.000  -0.393  -0.028   0.116   0.028   0.000  -0.047   0.001   0.000   0.000   0.000   0.000
  0.115   1.529  -0.046   0.115   0.080  -0.028  -0.393   0.058  -0.028  -0.101   0.047  -0.001   0.000   0.000   0.000   0.000
 -0.093  -0.046   2.262   0.046   0.000   0.117   0.058  -0.842  -0.058  -0.000   0.000   0.000   0.000   0.000   0.000   0.000
 -0.115   0.115   0.046   1.529   0.080   0.028  -0.028  -0.058  -0.393  -0.101  -0.047   0.001   0.000   0.000   0.000   0.000
 -0.000   0.080   0.000   0.080   2.262   0.000  -0.101   0.000  -0.101  -0.842  -0.000  -0.000   0.000   0.000   0.000   0.000
 -0.393  -0.028   0.117   0.028   0.000   0.808  -0.029  -0.085   0.029  -0.000  -0.016  -0.003   0.000   0.000   0.000   0.000
 -0.028  -0.393   0.058  -0.028  -0.101  -0.029   0.808  -0.042  -0.029   0.074   0.016   0.003   0.000   0.000   0.000   0.000
  0.116   0.058  -0.842  -0.058   0.000  -0.085  -0.042   0.998   0.042  -0.000  -0.000   0.000   0.000   0.000   0.000   0.000
  0.028  -0.028  -0.058  -0.393  -0.101   0.029  -0.029   0.042   0.808   0.074  -0.016  -0.003   0.000   0.000   0.000   0.000
 -0.000  -0.101  -0.000  -0.101  -0.842   0.000   0.074   0.000   0.074   0.998   0.000  -0.000   0.000   0.000   0.000   0.000
 -0.047   0.047   0.000  -0.047   0.000  -0.016   0.016  -0.000  -0.016   0.000   2.061  -0.201   0.000   0.000   0.000   0.000
  0.001  -0.001   0.000   0.001   0.000  -0.003   0.003   0.000  -0.003   0.000  -0.201   0.024   0.000   0.000   0.000   0.000
  0.000   0.000   0.000   0.000   0.000   0.000   0.000   0.000   0.000   0.000   0.000   0.000   0.270   0.004  -0.004  -0.022
  0.000   0.000   0.000   0.000   0.000   0.000   0.000   0.000   0.000   0.000   0.000   0.000   0.004   0.270  -0.004   0.001
  0.000   0.000   0.000   0.000   0.000   0.000   0.000   0.000   0.000   0.000   0.000   0.000  -0.004  -0.004   0.270  -0.001
  0.000   0.000   0.000   0.000   0.000   0.000   0.000   0.000   0.000   0.000   0.000   0.000  -0.022   0.001  -0.001   0.002
  0.000   0.000   0.000   0.000   0.000   0.000   0.000   0.000   0.000   0.000   0.000   0.000   0.001  -0.022  -0.001  -0.000
  0.000   0.000   0.000   0.000   0.000   0.000   0.000   0.000   0.000   0.000   0.000   0.000  -0.001  -0.001  -0.022   0.000


------------------------ aborting loop because EDIFF is reached ----------------------------------------


    CHARGE:  cpu time    1.8517: real time    1.8596
    FORLOC:  cpu time    0.0090: real time    0.0089
    FORNL :  cpu time    1.6747: real time    1.6825
    STRESS:  cpu time    4.9982: real time    5.0202
    FORCOR:  cpu time    0.0990: real time    0.1006
    FORHAR:  cpu time    0.0260: real time    0.0257
    MIXING:  cpu time    0.0060: real time    0.0059
    OFIELD:  cpu time    0.0000: real time    0.0001

  FORCE on cell =-STRESS in cart. coord.  units (eV):
  Direction    XX          YY          ZZ          XY          YZ          ZX
  --------------------------------------------------------------------------------------
  Alpha Z    61.27344    61.27344    61.27344
  Ewald    -302.14595  -302.14595  -302.14595    27.20059   -27.20059    27.20059
  Hartree    67.28816    67.28816    67.28812    27.57374   -27.57369    27.57369
  E(xc)     -67.79209   -67.79211   -67.79211    -0.15989     0.15989    -0.15987
  Local     -40.12125   -40.12111   -40.12097   -54.17897    54.17889   -54.17901
  n-local    -7.36562    -6.75845    -9.44749     1.22584     0.71895    -1.52787
  augment   174.86899   174.86894   174.86863    -0.08184     0.08176    -0.08173
  Kinetic   112.17069   111.93123   112.98193    -0.56117    -0.36144     0.52143
  Fock        0.00000     0.00000     0.00000     0.00000     0.00000     0.00000
  -------------------------------------------------------------------------------------
  Total      -2.12462    -2.12462    -2.12462     0.12062    -0.12062     0.12062
  in kB    -136.60863  -136.60863  -136.60863     7.75565    -7.75565     7.75565
  external pressure =     -136.61 kB  Pullay stress =        0.00 kB


 VOLUME and BASIS-vectors are now :
 -----------------------------------------------------------------------------
  energy-cutoff  :      267.97
  volume of cell :       24.92
      direct lattice vectors                 reciprocal lattice vectors
     1.840000000  1.840000000  0.000000000     0.407608696  0.135869565  0.135869565
    -1.840000000  1.840000000  3.680000000    -0.135869565  0.135869565  0.135869565
     0.000000000 -1.840000000  1.840000000     0.271739130 -0.271739130  0.271739130

  length of vectors
     2.602152955  4.507061127  2.602152955     0.450628368  0.235332990  0.470665980


 FORCES acting on ions
    electron-ion (+dipol)            ewald-force                    non-local-force                 convergence-correction
 -----------------------------------------------------------------------------------------------
   0.108E-13 0.105E-13 -.289E-13   0.827E-14 -.576E-14 -.360E-14   -.662E-22 0.593E-22 0.220E-24   -.903E-14 0.249E-13 -.733E-14
   0.141E-12 0.230E-13 0.224E-13   -.450E-14 0.695E-14 0.580E-14   0.627E-24 0.000E+00 0.000E+00   -.143E-14 -.316E-14 -.225E-14
 -----------------------------------------------------------------------------------------------
   0.152E-12 0.335E-13 -.655E-14   0.378E-14 0.120E-14 0.220E-14   -.655E-22 0.593E-22 0.220E-24   -.105E-13 0.217E-13 -.958E-14
 
 
 POSITION                                       TOTAL-FORCE (eV/Angst)
 -----------------------------------------------------------------------------------
      0.00000      0.00000      0.00000        -0.000000      0.000000      0.000000
      0.00000      1.84000      1.84000         0.000000     -0.000000      0.000000
 -----------------------------------------------------------------------------------
    total drift:                                0.000000      0.000000     -0.000000


--------------------------------------------------------------------------------------------------------



  FREE ENERGIE OF THE ION-ELECTRON SYSTEM (eV)
  ---------------------------------------------------
  free  energy   TOTEN  =       -15.81742855 eV

  energy  without entropy=      -15.81133675  energy(sigma->0) =      -15.81539795
 


--------------------------------------------------------------------------------------------------------


    POTLOK:  cpu time    0.1280: real time    0.1277


--------------------------------------------------------------------------------------------------------


 writing wavefunctions
     LOOP+:  cpu time  256.8620: real time  258.2657
    4ORBIT:  cpu time    0.0000: real time    0.0000

 total amount of memory used by VASP MPI-rank0    81654. kBytes
=======================================================================

   base      :      30000. kBytes
   nonl-proj :      28228. kBytes
   fftplans  :       1372. kBytes
   grid      :       2408. kBytes
   one-center:         31. kBytes
   wavefun   :      19615. kBytes
 
  
  
 General timing and accounting informations for this job:
 ========================================================
  
                  Total CPU time used (sec):      259.303
                            User time (sec):      259.086
                          System time (sec):        0.217
                         Elapsed time (sec):      261.179
  
                   Maximum memory used (kb):       79724.
                   Average memory used (kb):           0.
  
                          Minor page faults:        20712
                          Major page faults:            0
                 Voluntary context switches:          147
