 vasp.6.0.0 18Apr17 (build Mar 23 2018 09:59:13) complex                        
  
 executed on             LinuxIFC date 2018.06.18  11:00:52
 running on    1 total cores
 distrk:  each k-point on    1 cores,    1 groups
 distr:  one band on NCORES_PER_BAND=   1 cores,    1 groups


--------------------------------------------------------------------------------------------------------


 INCAR:
 POTCAR:    PAW_PBE V 08Apr2002                   
 POTCAR:    PAW_PBE W 08Apr2002                   
 POTCAR:    PAW_PBE V 08Apr2002                   
   VRHFIN =V: p6 d4 s1                                                          
   LEXCH  = PE                                                                  
   EATOM  =   170.8679 eV,   12.5584 Ry                                         
                                                                                
   TITEL  = PAW_PBE V 08Apr2002                                                 
   LULTRA =        F    use ultrasoft PP ?                                      
   IUNSCR =        1    unscreen: 0-lin 1-nonlin 2-no                           
   RPACOR =    2.000    partial core radius                                     
   POMASS =   50.941; ZVAL   =    5.000    mass and valenz                      
   RCORE  =    2.700    outmost cutoff radius                                   
   RWIGS  =    2.500; RWIGS  =    1.323    wigner-seitz radius (au A)           
   ENMAX  =  192.543; ENMIN  =  144.408 eV                                      
   RCLOC  =    1.779    cutoff for local pot                                    
   LCOR   =        T    correct aug charges                                     
   LPAW   =        T    paw PP                                                  
   EAUG   =  358.662                                                            
   DEXC   =    0.000                                                            
   RMAX   =    2.768    core radius for proj-oper                               
   RAUG   =    1.300    factor for augmentation sphere                          
   RDEP   =    2.762    radius for radial grids                                 
   RDEPT  =    2.240    core radius for aug-charge                              
                                                                                
   Atomic configuration                                                         
    9 entries                                                                   
     n  l   j            E        occ.                                          
     1  0  0.50     -5360.7193   2.0000                                         
     2  0  0.50      -598.4546   2.0000                                         
     2  1  1.50      -499.0155   6.0000                                         
     3  0  0.50       -66.5711   2.0000                                         
     3  1  1.50       -40.5282   6.0000                                         
     3  2  2.50        -2.4291   4.0000                                         
     4  0  0.50        -3.8743   1.0000                                         
     4  1  0.50        -2.7212   0.0000                                         
     4  3  2.50        -1.3606   0.0000                                         
   Description                                                                  
     l       E           TYP  RCUT    TYP  RCUT                                 
     2     -2.4290901     23  2.700                                             
     2     -3.7896727     23  2.700                                             
     0     -3.8742752     23  2.700                                             
     0     27.2116520     23  2.700                                             
     1     -2.7211652     23  2.700                                             
     1     27.2116520     23  2.700                                             
  local pseudopotential read in
  partial core-charges read in
  partial kinetic energy density read in
  atomic valenz-charges read in
  non local Contribution for L=           2  read in
    real space projection operators read in
  non local Contribution for L=           2  read in
    real space projection operators read in
  non local Contribution for L=           0  read in
    real space projection operators read in
  non local Contribution for L=           0  read in
    real space projection operators read in
  non local Contribution for L=           1  read in
    real space projection operators read in
  non local Contribution for L=           1  read in
    real space projection operators read in
    PAW grid and wavefunctions read in
 
   number of l-projection  operators is LMAX  =           6
   number of lm-projection operators is LMMAX =          18
 
 POTCAR:    PAW_PBE W 08Apr2002                   
   VRHFIN =W : 6s5d                                                             
   LEXCH  = PE                                                                  
   EATOM  =   204.6103 eV,   15.0384 Ry                                         
                                                                                
   TITEL  = PAW_PBE W 08Apr2002                                                 
   LULTRA =        F    use ultrasoft PP ?                                      
   IUNSCR =        1    unscreen: 0-lin 1-nonlin 2-no                           
   RPACOR =    2.330    partial core radius                                     
   POMASS =  183.850; ZVAL   =    6.000    mass and valenz                      
   RCORE  =    2.750    outmost cutoff radius                                   
   RWIGS  =    2.750; RWIGS  =    1.455    wigner-seitz radius (au A)           
   ENMAX  =  223.057; ENMIN  =  167.293 eV                                      
   RCLOC  =    2.147    cutoff for local pot                                    
   LCOR   =        T    correct aug charges                                     
   LPAW   =        T    paw PP                                                  
   EAUG   =  373.438                                                            
   DEXC   =    0.000                                                            
   RMAX   =    2.801    core radius for proj-oper                               
   RAUG   =    1.300    factor for augmentation sphere                          
   RDEP   =    2.886    radius for radial grids                                 
   RDEPT  =    2.230    core radius for aug-charge                              
                                                                                
   Atomic configuration                                                         
   16 entries                                                                   
     n  l   j            E        occ.                                          
     1  0  0.50    -69465.5836   2.0000                                         
     2  0  0.50    -11986.2642   2.0000                                         
     2  1  1.50    -10479.8616   6.0000                                         
     3  0  0.50     -2759.0758   2.0000                                         
     3  1  1.50     -2313.1857   6.0000                                         
     3  2  2.50     -1801.1185  10.0000                                         
     4  0  0.50      -567.6791   2.0000                                         
     4  1  1.50      -421.4694   6.0000                                         
     4  2  2.50      -236.3473  10.0000                                         
     4  3  3.50       -31.2666  14.0000                                         
     5  0  0.50       -77.1085   2.0000                                         
     5  1  1.50       -41.3856   6.0000                                         
     5  2  2.50        -3.3185   5.0000                                         
     6  0  0.50        -5.1438   1.0000                                         
     6  1  0.50        -3.8096   0.0000                                         
     5  3  2.50        -1.3606   0.0000                                         
   Description                                                                  
     l       E           TYP  RCUT    TYP  RCUT                                 
     2     -3.3185288     23  2.500                                             
     2     -1.5965414     23  2.500                                             
     0     -5.1438054     23  2.500                                             
     0      4.9117504     23  2.500                                             
     1      2.7211652     23  2.750                                             
     1     27.2116520     23  2.750                                             
  local pseudopotential read in
  partial core-charges read in
  partial kinetic energy density read in
  atomic valenz-charges read in
  non local Contribution for L=           2  read in
    real space projection operators read in
  non local Contribution for L=           2  read in
    real space projection operators read in
  non local Contribution for L=           0  read in
    real space projection operators read in
  non local Contribution for L=           0  read in
    real space projection operators read in
  non local Contribution for L=           1  read in
    real space projection operators read in
  non local Contribution for L=           1  read in
    real space projection operators read in
    PAW grid and wavefunctions read in
 
   number of l-projection  operators is LMAX  =           6
   number of lm-projection operators is LMMAX =          18
 
  PAW_PBE V 08Apr2002                   :
 energy of atom  1       EATOM= -170.8679
 kinetic energy error for atom=    0.0112 (will be added to EATOM!!)
  PAW_PBE W 08Apr2002                   :
 energy of atom  2       EATOM= -204.6103
 kinetic energy error for atom=    0.0299 (will be added to EATOM!!)
 
 
 POSCAR:  V  W                                   
  positions in cartesian coordinates
  No initial velocities read in
 exchange correlation table for  LEXCH =        8
   RHO(1)=    0.500       N(1)  =     2000
   RHO(2)=  100.500       N(2)  =     4000
 


--------------------------------------------------------------------------------------------------------


 ion  position               nearest neighbor table
   1  0.500  0.250  0.250-   4 2.72   2 2.72   4 2.72   2 2.72   4 2.72   2 2.72
   2  0.000  0.500  0.500-   1 2.72   1 2.72   3 2.72   1 2.72   3 2.72   3 2.72
   3  0.500  0.750  0.750-   2 2.72   2 2.72   4 2.72   2 2.72   4 2.72   4 2.72
   4  0.000  0.000  0.000-   3 2.72   1 2.72   3 2.72   1 2.72   3 2.72   1 2.72
 
  LATTYP: Found a trigonal (rhomboedric) cell.
 ALAT       =     9.0290503377
 COS(alpha) =     0.9545454545
  
  Lattice vectors:
  
 A1 = (  -5.7750000000,   3.8500000000,   5.7750000000)
 A2 = (  -3.8500000000,   5.7750000000,   5.7750000000)
 A3 = (  -5.7750000000,   5.7750000000,   3.8500000000)


Analysis of symmetry for initial positions (statically):
=====================================================================
 Subroutine PRICEL returns:
 Original cell was already a primitive cell.
 

 Routine SETGRP: Setting up the symmetry group for a 
 trigonal (rhombohedral) supercell.


 Subroutine GETGRP returns: Found 12 space group operations
 (whereof 12 operations were pure point group operations)
 out of a pool of 12 trial point group operations.


The static configuration has the point symmetry D_3d.


Analysis of symmetry for dynamics (positions and initial velocities):
=====================================================================
 Subroutine PRICEL returns:
 Original cell was already a primitive cell.
 

 Routine SETGRP: Setting up the symmetry group for a 
 trigonal (rhombohedral) supercell.


 Subroutine GETGRP returns: Found 12 space group operations
 (whereof 12 operations were pure point group operations)
 out of a pool of 12 trial point group operations.


The dynamic configuration has the point symmetry D_3d.


 Subroutine INISYM returns: Found 12 space group operations
 (whereof 12 operations are pure point group operations),
 and found     1 'primitive' translations

 
 
 KPOINTS: Server version 2018.05.22. K-point grid 
  k-points in reciprocal lattice
Space group operators:
 irot       det(A)        alpha          n_x          n_y          n_z        tau_x        tau_y        tau_z
    1     1.000000     0.000000     1.000000     0.000000     0.000000     0.000000     0.000000     0.000000
    2    -1.000000     0.000000     1.000000     0.000000     0.000000     0.000000     0.000000     0.000000
    3     1.000000   180.000000     0.707107     0.000000     0.707107     0.000000     0.000000     0.000000
    4    -1.000000   180.000000     0.707107     0.000000     0.707107     0.000000     0.000000     0.000000
    5     1.000000   120.000000     0.577350    -0.577350    -0.577350     0.000000     0.000000     0.000000
    6    -1.000000   120.000000     0.577350    -0.577350    -0.577350     0.000000     0.000000     0.000000
    7     1.000000   179.999999     0.707107     0.707107    -0.000000     0.000000     0.000000     0.000000
    8    -1.000000   179.999999     0.707107     0.707107    -0.000000     0.000000     0.000000     0.000000
    9     1.000000   120.000000    -0.577350     0.577350     0.577350     0.000000     0.000000     0.000000
   10    -1.000000   120.000000    -0.577350     0.577350     0.577350     0.000000     0.000000     0.000000
   11     1.000000   180.000000    -0.000000     0.707107    -0.707107     0.000000     0.000000     0.000000
   12    -1.000000   180.000000    -0.000000     0.707107    -0.707107     0.000000     0.000000     0.000000


--------------------------------------------------------------------------------------------------------




 Dimension of arrays:
   k-points           NKPTS =    176   k-points in BZ     NKDIM =    176   number of bands    NBANDS=     14
   number of dos      NEDOS =    301   number of ions     NIONS =      4
   non local maximal  LDIM  =      6   non local SUM 2l+1 LMDIM =     18
   total plane-waves  NPLWV =   9408
   max r-space proj   IRMAX =      1   max aug-charges    IRDMAX=  10196
   dimension x,y,z NGX =    14 NGY =   48 NGZ =   14
   dimension x,y,z NGXF=    28 NGYF=   96 NGZF=   28
   support grid    NGXF=    28 NGYF=   96 NGZF=   28
   ions per type =               3   1
   NGX,Y,Z   is equivalent  to a cutoff of   8.55,  8.84,  8.55 a.u.
   NGXF,Y,Z  is equivalent  to a cutoff of  17.10, 17.68, 17.10 a.u.

 SYSTEM =  unknown system                          
 POSCAR =   V  W                                   

 Startparameter for this run:
   NWRITE =      2    write-flag & timer
   PREC   = a         normal or accurate (medium, high low for compatibility)
   ISTART =      0    job   : 0-new  1-cont  2-samecut
   ICHARG =      2    charge: 1-file 2-atom 10-const
   ISPIN  =      1    spin polarized calculation?
   LNONCOLLINEAR =      F non collinear calculations
   LSORBIT =      F    spin-orbit coupling
   INIWAV =      1    electr: 0-lowe 1-rand  2-diag
   LASPH  =      F    aspherical Exc in radial PAW
   METAGGA=      F    non-selfconsistent MetaGGA calc.

 Electronic Relaxation 1
   ENCUT  =  223.1 eV  16.39 Ry    4.05 a.u.   3.32 11.00  3.32*2*pi/ulx,y,z
   ENINI  =  223.1     initial cutoff
   ENAUG  =  373.4 eV  augmentation charge cutoff
   NELM   =     60;   NELMIN=  2; NELMDL= -5     # of ELM steps 
   EDIFF  = 0.1E-04   stopping-criterion for ELM
   LREAL  =      F    real-space projection
   NLSPLINE    = F    spline interpolate recip. space projectors
   LCOMPAT=      F    compatible to vasp.4.4
   GGA_COMPAT  = T    GGA compatible to vasp.4.4-vasp.4.6
   LMAXPAW     = -100 max onsite density
   LMAXMIX     =    2 max onsite mixed and CHGCAR
   VOSKOWN=      0    Vosko Wilk Nusair interpolation
   ROPT   =    0.00000   0.00000
 Ionic relaxation
   EDIFFG = 0.1E-03   stopping-criterion for IOM
   NSW    =      0    number of steps for IOM
   NBLOCK =      1;   KBLOCK =      1    inner block; outer block 
   IBRION =     -1    ionic relax: 0-MD 1-quasi-New 2-CG
   NFREE  =      0    steps in history (QN), initial steepest desc. (CG)
   ISIF   =      2    stress and relaxation
   IWAVPR =     10    prediction:  0-non 1-charg 2-wave 3-comb
   ISYM   =      2    0-nonsym 1-usesym 2-fastsym
   LCORR  =      T    Harris-Foulkes like correction to forces

   POTIM  = 0.5000    time-step for ionic-motion
   TEIN   =    0.0    initial temperature
   TEBEG  =    0.0;   TEEND  =   0.0 temperature during run
   SMASS  =  -3.00    Nose mass-parameter (am)
   estimated Nose-frequenzy (Omega)   =  0.10E-29 period in steps =****** mass=  -0.169E-27a.u.
   SCALEE = 1.0000    scale energy and forces
   NPACO  =    256;   APACO  = 16.0  distance and # of slots for P.C.
   PSTRESS=    0.0 pullay stress

  Mass of Ions in am
   POMASS =  50.94183.85
  Ionic Valenz
   ZVAL   =   5.00  6.00
  Atomic Wigner-Seitz radii
   RWIGS  =  -1.00 -1.00
  virtual crystal weights 
   VCA    =   1.00  1.00
   NELECT =      21.0000    total number of electrons
   NUPDOWN=      -1.0000    fix difference up-down

 DOS related values:
   EMIN   =  10.00;   EMAX   =-10.00  energy-range for DOS
   EFERMI =   0.00
   ISMEAR =     1;   SIGMA  =   0.20  broadening in eV -4-tet -1-fermi 0-gaus

 Electronic relaxation 2 (details)
   IALGO  =     38    algorithm
   LDIAG  =      T    sub-space diagonalisation (order eigenvalues)
   LSUBROT=      F    optimize rotation matrix (better conditioning)
   TURBO    =      0    0=normal 1=particle mesh
   IRESTART =      0    0=no restart 2=restart with 2 vectors
   NREBOOT  =      0    no. of reboots
   NMIN     =      0    reboot dimension
   EREF     =   0.00    reference energy to select bands
   IMIX   =      4    mixing-type and parameters
     AMIX     =   0.40;   BMIX     =  1.00
     AMIX_MAG =   1.60;   BMIX_MAG =  1.00
     AMIN     =   0.10
     WC   =   100.;   INIMIX=   1;  MIXPRE=   1;  MAXMIX= -45

 Intra band minimization:
   WEIMIN = 0.0000     energy-eigenvalue tresh-hold
   EBREAK =  0.18E-06  absolut break condition
   DEPER  =   0.30     relativ break condition  

   TIME   =   0.40     timestep for ELM

  volume/ion in A,a.u.               =      14.27        96.28
  Fermi-wavevector in a.u.,A,eV,Ry     =   1.173151  2.216934 18.725466  1.376283
  Thomas-Fermi vector in A             =   2.309568
 
 Write flags
   LWAVE        =      T    write WAVECAR
   LDOWNSAMPLE  =      F    k-point downsampling of WAVECAR
   LCHARG       =      T    write CHGCAR
   LVTOT        =      F    write LOCPOT, total local potential
   LVHAR        =      F    write LOCPOT, Hartree potential only
   LELF         =      F    write electronic localiz. function (ELF)
   LORBIT       =      0    0 simple, 1 ext, 2 COOP (PROOUT), +10 PAW based schemes


 Dipole corrections
   LMONO  =      F    monopole corrections only (constant potential shift)
   LDIPOL =      F    correct potential (dipole corrections)
   IDIPOL =      0    1-x, 2-y, 3-z, 4-all directions 
   EPSILON=  1.0000000 bulk dielectric constant

 Exchange correlation treatment:
   GGA     =    PE    GGA type
   LEXCH   =     8    internal setting for exchange type
   VOSKOWN=      0    Vosko Wilk Nusair interpolation
   LHFCALC =     F    Hartree Fock is set to
   LHFONE  =     F    Hartree Fock one center treatment
   AEXX    =    0.0000 exact exchange contribution

 Linear response parameters
   LEPSILON=     F    determine dielectric tensor
   LRPA    =     F    only Hartree local field effects (RPA)
   LNABLA  =     F    use nabla operator in PAW spheres
   LVEL    =     F    velocity operator in full k-point grid
   LINTERFAST=   F  fast interpolation
   KINTER  =     0    interpolate to denser k-point grid
   CSHIFT  =0.1000    complex shift for real part using Kramers Kronig
   OMEGAMAX=  -1.0    maximum frequency
   DEG_THRESHOLD= 0.2000000E-02 threshold for treating states as degnerate
   RTIME   =   -0.100 relaxation time in fs
  (WPLASMAI=    0.000 imaginary part of plasma frequency in eV, 0.658/RTIME)
   DFIELD  = 0.0000000 0.0000000 0.0000000 field for delta impulse in time
 
 Orbital magnetization related:
   ORBITALMAG=     F  switch on orbital magnetization
   LCHIMAG   =     F  perturbation theory with respect to B field
   DQ        =  0.001000  dq finite difference perturbation B field
   LLRAUG    =     F  two centre corrections for induced B field



--------------------------------------------------------------------------------------------------------


 Static calculation
 charge density and potential will be updated during run
 non-spin polarized calculation
 Variant of blocked Davidson
 Davidson routine will perform the subspace rotation
 perform sub-space diagonalisation
    after iterative eigenvector-optimisation
 modified Broyden-mixing scheme, WC =      100.0
 initial mixing is a Kerker type mixing with AMIX =  0.4000 and BMIX =      1.0000
 Hartree-type preconditioning will be used
 using additional bands            3
 reciprocal scheme for non local part
 use partial core corrections
 calculate Harris-corrections to forces 
   (improved forces if not selfconsistent)
 use gradient corrections 
 use of overlap-Matrix (Vanderbilt PP)
 Methfessel and Paxton  Order N= 1 SIGMA  =   0.20


--------------------------------------------------------------------------------------------------------


  energy-cutoff  :      223.06
  volume of cell :       57.07
      direct lattice vectors                 reciprocal lattice vectors
     1.925000000  1.925000000  0.000000000     0.389610390  0.129870130  0.129870130
    -3.850000000  5.775000000  5.775000000    -0.064935065  0.064935065  0.064935065
     0.000000000 -1.925000000  1.925000000     0.194805195 -0.194805195  0.324675325

  length of vectors
     2.722361108  9.029050338  2.722361108     0.430730492  0.112470832  0.425807696


 
 k-points in units of 2pi/SCALE and weight: Server version 2018.05.22. K-point grid 
   0.34090909  0.17857143  0.17857143       0.001
  -0.02670716  0.04346460  0.04346460       0.003
  -0.00471303  0.03822790  0.03822790       0.003
   0.01728111  0.03299120  0.03299120       0.003
   0.03927524  0.02775450  0.02775450       0.003
   0.06126938  0.02251780  0.02251780       0.003
   0.01832845  0.08221617  0.08221617       0.003
   0.04032258  0.07697947  0.07697947       0.003
   0.06231672  0.07174277  0.07174277       0.003
   0.08431085  0.06650607  0.06650607       0.003
   0.10630499  0.06126938  0.06126938       0.003
   0.12829912  0.05603268  0.05603268       0.003
   0.15029326  0.05079598  0.05079598       0.003
   0.10735233  0.11049434  0.11049434       0.003
   0.12934646  0.10525765  0.10525765       0.003
   0.15134059  0.10002095  0.10002095       0.003
   0.00576037  0.01099707  0.01099707       0.003
  -0.03718056  0.07069543  0.07069543       0.003
  -0.01518643  0.06545873  0.06545873       0.003
   0.00680771  0.06022204  0.06022204       0.003
   0.02880184  0.05498534  0.05498534       0.003
   0.05079598  0.04974864  0.04974864       0.003
   0.07279011  0.04451194  0.04451194       0.003
   0.09478425  0.03927524  0.03927524       0.003
   0.05184332  0.09897361  0.09897361       0.003
   0.07383745  0.09373691  0.09373691       0.003
   0.09583159  0.08850021  0.08850021       0.003
   0.11782572  0.08326351  0.08326351       0.003
   0.13981986  0.07802681  0.07802681       0.003
   0.16181399  0.07279011  0.07279011       0.003
   0.18380813  0.06755341  0.06755341       0.003
   0.00052367  0.01623377  0.03299120       0.006
   0.02251780  0.01099707  0.02775450       0.006
  -0.02042313  0.07069543  0.08745287       0.006
   0.00157101  0.06545873  0.08221617       0.006
   0.02356514  0.06022204  0.07697947       0.006
   0.04555928  0.05498534  0.07174277       0.006
   0.06755341  0.04974864  0.06650607       0.006
   0.08954755  0.04451194  0.06126938       0.006
   0.11154168  0.03927524  0.05603268       0.006
   0.06860075  0.09897361  0.11573104       0.006
   0.09059489  0.09373691  0.11049434       0.006
   0.11258902  0.08850021  0.10525765       0.006
   0.13458316  0.08326351  0.10002095       0.006
   0.15657729  0.07802681  0.09478425       0.006
   0.17857143  0.07279011  0.08954755       0.006
   0.20056556  0.06755341  0.08431085       0.006
   0.15762463  0.12725178  0.14400922       0.006
   0.17961877  0.12201508  0.13877252       0.006
   0.20161290  0.11677838  0.13353582       0.006
   0.22360704  0.11154168  0.12829912       0.006
   0.24560117  0.10630499  0.12306242       0.006
   0.26759531  0.10106829  0.11782572       0.006
   0.28958944  0.09583159  0.11258902       0.006
   0.24664851  0.15552995  0.17228739       0.006
   0.26864265  0.15029326  0.16705069       0.006
   0.29063678  0.14505656  0.16181399       0.006
   0.31263092  0.13981986  0.15657729       0.006
   0.33462505  0.13458316  0.15134059       0.006
  -0.01518643  0.04870130  0.08221617       0.006
   0.00680771  0.04346460  0.07697947       0.006
   0.02880184  0.03822790  0.07174277       0.006
   0.05079598  0.03299120  0.06650607       0.006
   0.07279011  0.02775450  0.06126938       0.006
   0.09478425  0.02251780  0.05603268       0.006
   0.05184332  0.08221617  0.11573104       0.006
   0.07383745  0.07697947  0.11049434       0.006
   0.09583159  0.07174277  0.10525765       0.006
   0.11782572  0.06650607  0.10002095       0.006
   0.13981986  0.06126938  0.09478425       0.006
   0.16181399  0.05603268  0.08954755       0.006
   0.18380813  0.05079598  0.08431085       0.006
   0.03927524  0.01099707  0.04451194       0.006
   0.06126938  0.00576037  0.03927524       0.006
   0.01832845  0.06545873  0.09897361       0.006
   0.04032258  0.06022204  0.09373691       0.006
   0.06231672  0.05498534  0.08850021       0.006
   0.08431085  0.04974864  0.08326351       0.006
   0.10630499  0.04451194  0.07802681       0.006
   0.12829912  0.03927524  0.07279011       0.006
   0.15029326  0.03403854  0.06755341       0.006
   0.10735233  0.09373691  0.12725178       0.006
   0.12934646  0.08850021  0.12201508       0.006
   0.15134059  0.08326351  0.11677838       0.006
   0.03403854  0.01623377  0.06650607       0.006
   0.05603268  0.01099707  0.06126938       0.006
   0.07802681  0.00576037  0.05603268       0.006
   0.03508588  0.06545873  0.11573104       0.006
   0.05708002  0.06022204  0.11049434       0.006
   0.07907415  0.05498534  0.10525765       0.006
   0.10106829  0.04974864  0.10002095       0.006
   0.12306242  0.04451194  0.09478425       0.006
   0.14505656  0.03927524  0.08954755       0.006
   0.16705069  0.03403854  0.08431085       0.006
   0.12410976  0.09373691  0.14400922       0.006
   0.14610390  0.08850021  0.13877252       0.006
   0.16809803  0.08326351  0.13353582       0.006
   0.19009217  0.07802681  0.12829912       0.006
   0.21208630  0.07279011  0.12306242       0.006
   0.23408044  0.06755341  0.11782572       0.006
   0.25607457  0.06231672  0.11258902       0.006
   0.21313364  0.12201508  0.17228739       0.006
   0.23512778  0.11677838  0.16705069       0.006
   0.25712191  0.11154168  0.16181399       0.006
   0.27911605  0.10630499  0.15657729       0.006
   0.30111018  0.10106829  0.15134059       0.006
   0.01832845  0.04870130  0.11573104       0.006
   0.04032258  0.04346460  0.11049434       0.006
   0.06231672  0.03822790  0.10525765       0.006
   0.08431085  0.03299120  0.10002095       0.006
   0.10630499  0.02775450  0.09478425       0.006
   0.12829912  0.02251780  0.08954755       0.006
   0.15029326  0.01728111  0.08431085       0.006
   0.10735233  0.07697947  0.14400922       0.006
   0.12934646  0.07174277  0.13877252       0.006
   0.15134059  0.06650607  0.13353582       0.006
   0.07279011  0.01099707  0.07802681       0.006
   0.09478425  0.00576037  0.07279011       0.006
   0.05184332  0.06545873  0.13248848       0.006
   0.07383745  0.06022204  0.12725178       0.006
   0.09583159  0.05498534  0.12201508       0.006
   0.11782572  0.04974864  0.11677838       0.006
   0.13981986  0.04451194  0.11154168       0.006
   0.16181399  0.03927524  0.10630499       0.006
   0.18380813  0.03403854  0.10106829       0.006
   0.06755341  0.01623377  0.10002095       0.006
   0.08954755  0.01099707  0.09478425       0.006
   0.11154168  0.00576037  0.08954755       0.006
   0.06860075  0.06545873  0.14924592       0.006
   0.09059489  0.06022204  0.14400922       0.006
   0.11258902  0.05498534  0.13877252       0.006
   0.13458316  0.04974864  0.13353582       0.006
   0.15657729  0.04451194  0.12829912       0.006
   0.17857143  0.03927524  0.12306242       0.006
   0.20056556  0.03403854  0.11782572       0.006
   0.15762463  0.09373691  0.17752409       0.006
   0.17961877  0.08850021  0.17228739       0.006
   0.20161290  0.08326351  0.16705069       0.006
   0.22360704  0.07802681  0.16181399       0.006
   0.24560117  0.07279011  0.15657729       0.006
   0.26759531  0.06755341  0.15134059       0.006
   0.05184332  0.04870130  0.14924592       0.006
   0.07383745  0.04346460  0.14400922       0.006
   0.09583159  0.03822790  0.13877252       0.006
   0.11782572  0.03299120  0.13353582       0.006
   0.13981986  0.02775450  0.12829912       0.006
   0.16181399  0.02251780  0.12306242       0.006
   0.18380813  0.01728111  0.11782572       0.006
   0.10630499  0.01099707  0.11154168       0.006
   0.12829912  0.00576037  0.10630499       0.006
   0.15029326  0.00052367  0.10106829       0.006
   0.10735233  0.06022204  0.16076665       0.006
   0.12934646  0.05498534  0.15552995       0.006
   0.15134059  0.04974864  0.15029326       0.006
   0.10106829  0.01623377  0.13353582       0.006
   0.12306242  0.01099707  0.12829912       0.006
   0.14505656  0.00576037  0.12306242       0.006
   0.16705069  0.00052367  0.11782572       0.006
   0.12410976  0.06022204  0.17752409       0.006
   0.14610390  0.05498534  0.17228739       0.006
   0.16809803  0.04974864  0.16705069       0.006
   0.19009217  0.04451194  0.16181399       0.006
   0.21208630  0.03927524  0.15657729       0.006
   0.23408044  0.03403854  0.15134059       0.006
   0.15029326 -0.01623377  0.11782572       0.006
   0.10735233  0.04346460  0.17752409       0.006
   0.12934646  0.03822790  0.17228739       0.006
   0.15134059  0.03299120  0.16705069       0.006
   0.13981986  0.01099707  0.14505656       0.006
   0.16181399  0.00576037  0.13981986       0.006
   0.18380813  0.00052367  0.13458316       0.006
   0.13458316  0.01623377  0.16705069       0.006
   0.15657729  0.01099707  0.16181399       0.006
   0.17857143  0.00576037  0.15657729       0.006
   0.20056556  0.00052367  0.15134059       0.006
   0.18380813 -0.01623377  0.15134059       0.006
 
 k-points in reciprocal lattice and weights: Server version 2018.05.22. K-point grid 
   1.00000000  0.75000000  0.00000000       0.001
   0.03225806  0.60483871  0.00000000       0.003
   0.06451613  0.45967742  0.00000000       0.003
   0.09677419  0.31451613  0.00000000       0.003
   0.12903226  0.16935484  0.00000000       0.003
   0.16129032  0.02419355  0.00000000       0.003
   0.19354839  0.87903226  0.00000000       0.003
   0.22580645  0.73387097  0.00000000       0.003
   0.25806452  0.58870968  0.00000000       0.003
   0.29032258  0.44354839  0.00000000       0.003
   0.32258065  0.29838710  0.00000000       0.003
   0.35483871  0.15322581  0.00000000       0.003
   0.38709677  0.00806452  0.00000000       0.003
   0.41935484  0.86290323  0.00000000       0.003
   0.45161290  0.71774194  0.00000000       0.003
   0.48387097  0.57258065  0.00000000       0.003
   0.03225806  0.10483871  0.00000000       0.003
   0.06451613  0.95967742  0.00000000       0.003
   0.09677419  0.81451613  0.00000000       0.003
   0.12903226  0.66935484  0.00000000       0.003
   0.16129032  0.52419355  0.00000000       0.003
   0.19354839  0.37903226  0.00000000       0.003
   0.22580645  0.23387097  0.00000000       0.003
   0.25806452  0.08870968  0.00000000       0.003
   0.29032258  0.94354839  0.00000000       0.003
   0.32258065  0.79838710  0.00000000       0.003
   0.35483871  0.65322581  0.00000000       0.003
   0.38709677  0.50806452  0.00000000       0.003
   0.41935484  0.36290323  0.00000000       0.003
   0.45161290  0.21774194  0.00000000       0.003
   0.48387097  0.07258065  0.00000000       0.003
   0.03225806  0.28225806  0.03225806       0.006
   0.06451613  0.13709677  0.03225806       0.006
   0.09677419  0.99193548  0.03225806       0.006
   0.12903226  0.84677419  0.03225806       0.006
   0.16129032  0.70161290  0.03225806       0.006
   0.19354839  0.55645161  0.03225806       0.006
   0.22580645  0.41129032  0.03225806       0.006
   0.25806452  0.26612903  0.03225806       0.006
   0.29032258  0.12096774  0.03225806       0.006
   0.32258065  0.97580645  0.03225806       0.006
   0.35483871  0.83064516  0.03225806       0.006
   0.38709677  0.68548387  0.03225806       0.006
   0.41935484  0.54032258  0.03225806       0.006
   0.45161290  0.39516129  0.03225806       0.006
   0.48387097  0.25000000  0.03225806       0.006
   0.51612903  0.10483871  0.03225806       0.006
   0.54838710  0.95967742  0.03225806       0.006
   0.58064516  0.81451613  0.03225806       0.006
   0.61290323  0.66935484  0.03225806       0.006
   0.64516129  0.52419355  0.03225806       0.006
   0.67741935  0.37903226  0.03225806       0.006
   0.70967742  0.23387097  0.03225806       0.006
   0.74193548  0.08870968  0.03225806       0.006
   0.77419355  0.94354839  0.03225806       0.006
   0.80645161  0.79838710  0.03225806       0.006
   0.83870968  0.65322581  0.03225806       0.006
   0.87096774  0.50806452  0.03225806       0.006
   0.90322581  0.36290323  0.03225806       0.006
   0.06451613  0.81451613  0.06451613       0.006
   0.09677419  0.66935484  0.06451613       0.006
   0.12903226  0.52419355  0.06451613       0.006
   0.16129032  0.37903226  0.06451613       0.006
   0.19354839  0.23387097  0.06451613       0.006
   0.22580645  0.08870968  0.06451613       0.006
   0.25806452  0.94354839  0.06451613       0.006
   0.29032258  0.79838710  0.06451613       0.006
   0.32258065  0.65322581  0.06451613       0.006
   0.35483871  0.50806452  0.06451613       0.006
   0.38709677  0.36290323  0.06451613       0.006
   0.41935484  0.21774194  0.06451613       0.006
   0.45161290  0.07258065  0.06451613       0.006
   0.09677419  0.16935484  0.06451613       0.006
   0.12903226  0.02419355  0.06451613       0.006
   0.16129032  0.87903226  0.06451613       0.006
   0.19354839  0.73387097  0.06451613       0.006
   0.22580645  0.58870968  0.06451613       0.006
   0.25806452  0.44354839  0.06451613       0.006
   0.29032258  0.29838710  0.06451613       0.006
   0.32258065  0.15322581  0.06451613       0.006
   0.35483871  0.00806452  0.06451613       0.006
   0.38709677  0.86290323  0.06451613       0.006
   0.41935484  0.71774194  0.06451613       0.006
   0.45161290  0.57258065  0.06451613       0.006
   0.09677419  0.34677419  0.09677419       0.006
   0.12903226  0.20161290  0.09677419       0.006
   0.16129032  0.05645161  0.09677419       0.006
   0.19354839  0.91129032  0.09677419       0.006
   0.22580645  0.76612903  0.09677419       0.006
   0.25806452  0.62096774  0.09677419       0.006
   0.29032258  0.47580645  0.09677419       0.006
   0.32258065  0.33064516  0.09677419       0.006
   0.35483871  0.18548387  0.09677419       0.006
   0.38709677  0.04032258  0.09677419       0.006
   0.41935484  0.89516129  0.09677419       0.006
   0.45161290  0.75000000  0.09677419       0.006
   0.48387097  0.60483871  0.09677419       0.006
   0.51612903  0.45967742  0.09677419       0.006
   0.54838710  0.31451613  0.09677419       0.006
   0.58064516  0.16935484  0.09677419       0.006
   0.61290323  0.02419355  0.09677419       0.006
   0.64516129  0.87903226  0.09677419       0.006
   0.67741935  0.73387097  0.09677419       0.006
   0.70967742  0.58870968  0.09677419       0.006
   0.74193548  0.44354839  0.09677419       0.006
   0.77419355  0.29838710  0.09677419       0.006
   0.12903226  0.87903226  0.12903226       0.006
   0.16129032  0.73387097  0.12903226       0.006
   0.19354839  0.58870968  0.12903226       0.006
   0.22580645  0.44354839  0.12903226       0.006
   0.25806452  0.29838710  0.12903226       0.006
   0.29032258  0.15322581  0.12903226       0.006
   0.32258065  0.00806452  0.12903226       0.006
   0.35483871  0.86290323  0.12903226       0.006
   0.38709677  0.71774194  0.12903226       0.006
   0.41935484  0.57258065  0.12903226       0.006
   0.16129032  0.23387097  0.12903226       0.006
   0.19354839  0.08870968  0.12903226       0.006
   0.22580645  0.94354839  0.12903226       0.006
   0.25806452  0.79838710  0.12903226       0.006
   0.29032258  0.65322581  0.12903226       0.006
   0.32258065  0.50806452  0.12903226       0.006
   0.35483871  0.36290323  0.12903226       0.006
   0.38709677  0.21774194  0.12903226       0.006
   0.41935484  0.07258065  0.12903226       0.006
   0.16129032  0.41129032  0.16129032       0.006
   0.19354839  0.26612903  0.16129032       0.006
   0.22580645  0.12096774  0.16129032       0.006
   0.25806452  0.97580645  0.16129032       0.006
   0.29032258  0.83064516  0.16129032       0.006
   0.32258065  0.68548387  0.16129032       0.006
   0.35483871  0.54032258  0.16129032       0.006
   0.38709677  0.39516129  0.16129032       0.006
   0.41935484  0.25000000  0.16129032       0.006
   0.45161290  0.10483871  0.16129032       0.006
   0.48387097  0.95967742  0.16129032       0.006
   0.51612903  0.81451613  0.16129032       0.006
   0.54838710  0.66935484  0.16129032       0.006
   0.58064516  0.52419355  0.16129032       0.006
   0.61290323  0.37903226  0.16129032       0.006
   0.64516129  0.23387097  0.16129032       0.006
   0.19354839  0.94354839  0.19354839       0.006
   0.22580645  0.79838710  0.19354839       0.006
   0.25806452  0.65322581  0.19354839       0.006
   0.29032258  0.50806452  0.19354839       0.006
   0.32258065  0.36290323  0.19354839       0.006
   0.35483871  0.21774194  0.19354839       0.006
   0.38709677  0.07258065  0.19354839       0.006
   0.22580645  0.29838710  0.19354839       0.006
   0.25806452  0.15322581  0.19354839       0.006
   0.29032258  0.00806452  0.19354839       0.006
   0.32258065  0.86290323  0.19354839       0.006
   0.35483871  0.71774194  0.19354839       0.006
   0.38709677  0.57258065  0.19354839       0.006
   0.22580645  0.47580645  0.22580645       0.006
   0.25806452  0.33064516  0.22580645       0.006
   0.29032258  0.18548387  0.22580645       0.006
   0.32258065  0.04032258  0.22580645       0.006
   0.35483871  0.89516129  0.22580645       0.006
   0.38709677  0.75000000  0.22580645       0.006
   0.41935484  0.60483871  0.22580645       0.006
   0.45161290  0.45967742  0.22580645       0.006
   0.48387097  0.31451613  0.22580645       0.006
   0.51612903  0.16935484  0.22580645       0.006
   0.25806452  0.00806452  0.25806452       0.006
   0.29032258  0.86290323  0.25806452       0.006
   0.32258065  0.71774194  0.25806452       0.006
   0.35483871  0.57258065  0.25806452       0.006
   0.29032258  0.36290323  0.25806452       0.006
   0.32258065  0.21774194  0.25806452       0.006
   0.35483871  0.07258065  0.25806452       0.006
   0.29032258  0.54032258  0.29032258       0.006
   0.32258065  0.39516129  0.29032258       0.006
   0.35483871  0.25000000  0.29032258       0.006
   0.38709677  0.10483871  0.29032258       0.006
   0.32258065  0.07258065  0.32258065       0.006
 
 position of ions in fractional coordinates (direct lattice) 
   0.50000000  0.25000000  0.25000000
   0.00000000  0.50000000  0.50000000
   0.50000000  0.75000000  0.75000000
   0.00000000  0.00000000  0.00000000
 
 position of ions in cartesian coordinates  (Angst):
   0.00000000  1.92500000  1.92500000
  -1.92500000  1.92500000  3.85000000
  -1.92500000  3.85000000  5.77500000
   0.00000000  0.00000000  0.00000000
 


--------------------------------------------------------------------------------------------------------


 k-point  1 :   1.0000 0.7500 0.0000  plane waves:     442
 k-point  2 :   0.0323 0.6048 0.0000  plane waves:     445
 k-point  3 :   0.0645 0.4597 0.0000  plane waves:     442
 k-point  4 :   0.0968 0.3145 0.0000  plane waves:     438
 k-point  5 :   0.1290 0.1694 0.0000  plane waves:     435
 k-point  6 :   0.1613 0.0242 0.0000  plane waves:     437
 k-point  7 :   0.1935 0.8790 0.0000  plane waves:     437
 k-point  8 :   0.2258 0.7339 0.0000  plane waves:     435
 k-point  9 :   0.2581 0.5887 0.0000  plane waves:     428
 k-point 10 :   0.2903 0.4435 0.0000  plane waves:     429
 k-point 11 :   0.3226 0.2984 0.0000  plane waves:     430
 k-point 12 :   0.3548 0.1532 0.0000  plane waves:     428
 k-point 13 :   0.3871 0.0081 0.0000  plane waves:     432
 k-point 14 :   0.4194 0.8629 0.0000  plane waves:     432
 k-point 15 :   0.4516 0.7177 0.0000  plane waves:     429
 k-point 16 :   0.4839 0.5726 0.0000  plane waves:     431
 k-point 17 :   0.0323 0.1048 0.0000  plane waves:     436
 k-point 18 :   0.0645 0.9597 0.0000  plane waves:     438
 k-point 19 :   0.0968 0.8145 0.0000  plane waves:     441
 k-point 20 :   0.1290 0.6694 0.0000  plane waves:     439
 k-point 21 :   0.1613 0.5242 0.0000  plane waves:     439
 k-point 22 :   0.1935 0.3790 0.0000  plane waves:     432
 k-point 23 :   0.2258 0.2339 0.0000  plane waves:     430
 k-point 24 :   0.2581 0.0887 0.0000  plane waves:     429
 k-point 25 :   0.2903 0.9435 0.0000  plane waves:     427
 k-point 26 :   0.3226 0.7984 0.0000  plane waves:     428
 k-point 27 :   0.3548 0.6532 0.0000  plane waves:     435
 k-point 28 :   0.3871 0.5081 0.0000  plane waves:     434
 k-point 29 :   0.4194 0.3629 0.0000  plane waves:     433
 k-point 30 :   0.4516 0.2177 0.0000  plane waves:     438
 k-point 31 :   0.4839 0.0726 0.0000  plane waves:     436
 k-point 32 :   0.0323 0.2823 0.0323  plane waves:     441
 k-point 33 :   0.0645 0.1371 0.0323  plane waves:     439
 k-point 34 :   0.0968 0.9919 0.0323  plane waves:     434
 k-point 35 :   0.1290 0.8468 0.0323  plane waves:     439
 k-point 36 :   0.1613 0.7016 0.0323  plane waves:     441
 k-point 37 :   0.1935 0.5565 0.0323  plane waves:     434
 k-point 38 :   0.2258 0.4113 0.0323  plane waves:     429
 k-point 39 :   0.2581 0.2661 0.0323  plane waves:     429
 k-point 40 :   0.2903 0.1210 0.0323  plane waves:     426
 k-point 41 :   0.3226 0.9758 0.0323  plane waves:     426
 k-point 42 :   0.3548 0.8306 0.0323  plane waves:     431
 k-point 43 :   0.3871 0.6855 0.0323  plane waves:     434
 k-point 44 :   0.4194 0.5403 0.0323  plane waves:     429
 k-point 45 :   0.4516 0.3952 0.0323  plane waves:     432
 k-point 46 :   0.4839 0.2500 0.0323  plane waves:     435
 k-point 47 :   0.5161 0.1048 0.0323  plane waves:     435
 k-point 48 :   0.5484 0.9597 0.0323  plane waves:     437
 k-point 49 :   0.5806 0.8145 0.0323  plane waves:     437
 k-point 50 :   0.6129 0.6694 0.0323  plane waves:     431
 k-point 51 :   0.6452 0.5242 0.0323  plane waves:     428
 k-point 52 :   0.6774 0.3790 0.0323  plane waves:     432
 k-point 53 :   0.7097 0.2339 0.0323  plane waves:     429
 k-point 54 :   0.7419 0.0887 0.0323  plane waves:     432
 k-point 55 :   0.7742 0.9435 0.0323  plane waves:     435
 k-point 56 :   0.8065 0.7984 0.0323  plane waves:     435
 k-point 57 :   0.8387 0.6532 0.0323  plane waves:     440
 k-point 58 :   0.8710 0.5081 0.0323  plane waves:     439
 k-point 59 :   0.9032 0.3629 0.0323  plane waves:     443
 k-point 60 :   0.0645 0.8145 0.0645  plane waves:     440
 k-point 61 :   0.0968 0.6694 0.0645  plane waves:     439
 k-point 62 :   0.1290 0.5242 0.0645  plane waves:     444
 k-point 63 :   0.1613 0.3790 0.0645  plane waves:     435
 k-point 64 :   0.1935 0.2339 0.0645  plane waves:     434
 k-point 65 :   0.2258 0.0887 0.0645  plane waves:     430
 k-point 66 :   0.2581 0.9435 0.0645  plane waves:     431
 k-point 67 :   0.2903 0.7984 0.0645  plane waves:     430
 k-point 68 :   0.3226 0.6532 0.0645  plane waves:     429
 k-point 69 :   0.3548 0.5081 0.0645  plane waves:     428
 k-point 70 :   0.3871 0.3629 0.0645  plane waves:     428
 k-point 71 :   0.4194 0.2177 0.0645  plane waves:     438
 k-point 72 :   0.4516 0.0726 0.0645  plane waves:     435
 k-point 73 :   0.0968 0.1694 0.0645  plane waves:     437
 k-point 74 :   0.1290 0.0242 0.0645  plane waves:     435
 k-point 75 :   0.1613 0.8790 0.0645  plane waves:     439
 k-point 76 :   0.1935 0.7339 0.0645  plane waves:     437
 k-point 77 :   0.2258 0.5887 0.0645  plane waves:     430
 k-point 78 :   0.2581 0.4435 0.0645  plane waves:     429
 k-point 79 :   0.2903 0.2984 0.0645  plane waves:     429
 k-point 80 :   0.3226 0.1532 0.0645  plane waves:     429
 k-point 81 :   0.3548 0.0081 0.0645  plane waves:     433
 k-point 82 :   0.3871 0.8629 0.0645  plane waves:     433
 k-point 83 :   0.4194 0.7177 0.0645  plane waves:     432
 k-point 84 :   0.4516 0.5726 0.0645  plane waves:     428
 k-point 85 :   0.0968 0.3468 0.0968  plane waves:     442
 k-point 86 :   0.1290 0.2016 0.0968  plane waves:     441
 k-point 87 :   0.1613 0.0565 0.0968  plane waves:     434
 k-point 88 :   0.1935 0.9113 0.0968  plane waves:     437
 k-point 89 :   0.2258 0.7661 0.0968  plane waves:     431
 k-point 90 :   0.2581 0.6210 0.0968  plane waves:     433
 k-point 91 :   0.2903 0.4758 0.0968  plane waves:     431
 k-point 92 :   0.3226 0.3306 0.0968  plane waves:     428
 k-point 93 :   0.3548 0.1855 0.0968  plane waves:     433
 k-point 94 :   0.3871 0.0403 0.0968  plane waves:     434
 k-point 95 :   0.4194 0.8952 0.0968  plane waves:     432
 k-point 96 :   0.4516 0.7500 0.0968  plane waves:     430
 k-point 97 :   0.4839 0.6048 0.0968  plane waves:     429
 k-point 98 :   0.5161 0.4597 0.0968  plane waves:     425
 k-point 99 :   0.5484 0.3145 0.0968  plane waves:     426
 k-point ** :   0.5806 0.1694 0.0968  plane waves:     428
 k-point ** :   0.6129 0.0242 0.0968  plane waves:     431
 k-point ** :   0.6452 0.8790 0.0968  plane waves:     429
 k-point ** :   0.6774 0.7339 0.0968  plane waves:     432
 k-point ** :   0.7097 0.5887 0.0968  plane waves:     431
 k-point ** :   0.7419 0.4435 0.0968  plane waves:     431
 k-point ** :   0.7742 0.2984 0.0968  plane waves:     440
 k-point ** :   0.1290 0.8790 0.1290  plane waves:     436
 k-point ** :   0.1613 0.7339 0.1290  plane waves:     434
 k-point ** :   0.1935 0.5887 0.1290  plane waves:     432
 k-point ** :   0.2258 0.4435 0.1290  plane waves:     431
 k-point ** :   0.2581 0.2984 0.1290  plane waves:     432
 k-point ** :   0.2903 0.1532 0.1290  plane waves:     433
 k-point ** :   0.3226 0.0081 0.1290  plane waves:     431
 k-point ** :   0.3548 0.8629 0.1290  plane waves:     431
 k-point ** :   0.3871 0.7177 0.1290  plane waves:     426
 k-point ** :   0.4194 0.5726 0.1290  plane waves:     425
 k-point ** :   0.1613 0.2339 0.1290  plane waves:     435
 k-point ** :   0.1935 0.0887 0.1290  plane waves:     435
 k-point ** :   0.2258 0.9435 0.1290  plane waves:     433
 k-point ** :   0.2581 0.7984 0.1290  plane waves:     434
 k-point ** :   0.2903 0.6532 0.1290  plane waves:     431
 k-point ** :   0.3226 0.5081 0.1290  plane waves:     428
 k-point ** :   0.3548 0.3629 0.1290  plane waves:     427
 k-point ** :   0.3871 0.2177 0.1290  plane waves:     430
 k-point ** :   0.4194 0.0726 0.1290  plane waves:     431
 k-point ** :   0.1613 0.4113 0.1613  plane waves:     436
 k-point ** :   0.1935 0.2661 0.1613  plane waves:     435
 k-point ** :   0.2258 0.1210 0.1613  plane waves:     433
 k-point ** :   0.2581 0.9758 0.1613  plane waves:     434
 k-point ** :   0.2903 0.8306 0.1613  plane waves:     428
 k-point ** :   0.3226 0.6855 0.1613  plane waves:     426
 k-point ** :   0.3548 0.5403 0.1613  plane waves:     426
 k-point ** :   0.3871 0.3952 0.1613  plane waves:     425
 k-point ** :   0.4194 0.2500 0.1613  plane waves:     427
 k-point ** :   0.4516 0.1048 0.1613  plane waves:     429
 k-point ** :   0.4839 0.9597 0.1613  plane waves:     431
 k-point ** :   0.5161 0.8145 0.1613  plane waves:     426
 k-point ** :   0.5484 0.6694 0.1613  plane waves:     426
 k-point ** :   0.5806 0.5242 0.1613  plane waves:     427
 k-point ** :   0.6129 0.3790 0.1613  plane waves:     429
 k-point ** :   0.6452 0.2339 0.1613  plane waves:     432
 k-point ** :   0.1935 0.9435 0.1935  plane waves:     430
 k-point ** :   0.2258 0.7984 0.1935  plane waves:     429
 k-point ** :   0.2581 0.6532 0.1935  plane waves:     427
 k-point ** :   0.2903 0.5081 0.1935  plane waves:     427
 k-point ** :   0.3226 0.3629 0.1935  plane waves:     427
 k-point ** :   0.3548 0.2177 0.1935  plane waves:     431
 k-point ** :   0.3871 0.0726 0.1935  plane waves:     429
 k-point ** :   0.2258 0.2984 0.1935  plane waves:     430
 k-point ** :   0.2581 0.1532 0.1935  plane waves:     431
 k-point ** :   0.2903 0.0081 0.1935  plane waves:     429
 k-point ** :   0.3226 0.8629 0.1935  plane waves:     431
 k-point ** :   0.3548 0.7177 0.1935  plane waves:     427
 k-point ** :   0.3871 0.5726 0.1935  plane waves:     428
 k-point ** :   0.2258 0.4758 0.2258  plane waves:     430
 k-point ** :   0.2581 0.3306 0.2258  plane waves:     431
 k-point ** :   0.2903 0.1855 0.2258  plane waves:     430
 k-point ** :   0.3226 0.0403 0.2258  plane waves:     430
 k-point ** :   0.3548 0.8952 0.2258  plane waves:     431
 k-point ** :   0.3871 0.7500 0.2258  plane waves:     425
 k-point ** :   0.4194 0.6048 0.2258  plane waves:     425
 k-point ** :   0.4516 0.4597 0.2258  plane waves:     425
 k-point ** :   0.4839 0.3145 0.2258  plane waves:     430
 k-point ** :   0.5161 0.1694 0.2258  plane waves:     430
 k-point ** :   0.2581 0.0081 0.2581  plane waves:     431
 k-point ** :   0.2903 0.8629 0.2581  plane waves:     432
 k-point ** :   0.3226 0.7177 0.2581  plane waves:     429
 k-point ** :   0.3548 0.5726 0.2581  plane waves:     424
 k-point ** :   0.2903 0.3629 0.2581  plane waves:     427
 k-point ** :   0.3226 0.2177 0.2581  plane waves:     424
 k-point ** :   0.3548 0.0726 0.2581  plane waves:     429
 k-point ** :   0.2903 0.5403 0.2903  plane waves:     429
 k-point ** :   0.3226 0.3952 0.2903  plane waves:     423
 k-point ** :   0.3548 0.2500 0.2903  plane waves:     426
 k-point ** :   0.3871 0.1048 0.2903  plane waves:     432
 k-point ** :   0.3226 0.0726 0.3226  plane waves:     423

 maximum and minimum number of plane-waves per node :       445      423

 maximum number of plane-waves:       445
 maximum index in each direction: 
   IXMAX=    3   IYMAX=   10   IZMAX=    3
   IXMIN=   -4   IYMIN=  -11   IZMIN=   -3


 serial   3D FFT for wavefunctions
 parallel 3D FFT for charge:
    minimum data exchange during FFTs selected (reduces bandwidth)


 total amount of memory used by VASP MPI-rank0    80592. kBytes
=======================================================================

   base      :      30000. kBytes
   nonl-proj :      22584. kBytes
   fftplans  :       2748. kBytes
   grid      :       4816. kBytes
   one-center:         62. kBytes
   wavefun   :      20382. kBytes
 
     INWAV:  cpu time    0.0000: real time    0.0002
 Broyden mixing: mesh for mixing (old mesh)
   NGX =  7   NGY = 21   NGZ =  7
  (NGX  = 28   NGY  = 96   NGZ  = 28)
  gives a total of   1029 points

 initial charge density was supplied:
 charge density of overlapping atoms calculated
 number of electron      21.0000000 magnetization 
 keeping initial charge density in first step


--------------------------------------------------------------------------------------------------------


 Maximum index for augmentation-charges         9709 (set IRDMAX)


--------------------------------------------------------------------------------------------------------


 First call to EWALD:  gamma=   0.460
 Maximum number of real-space cells 4x 1x 4
 Maximum number of reciprocal cells 2x 6x 2

    FEWALD:  cpu time    0.0070: real time    0.0069


--------------------------------------- Iteration      1(   1)  ---------------------------------------


    POTLOK:  cpu time    0.1860: real time    0.1876
    SETDIJ:  cpu time    0.0800: real time    0.0799
     EDDAV:  cpu time   12.9070: real time   12.9611
       DOS:  cpu time    0.0670: real time    0.0674
    --------------------------------------------
      LOOP:  cpu time   13.2400: real time   13.2961

 eigenvalue-minimisations  :  4976
 total energy-change (2. order) : 0.7476036E+02  (-0.4269835E+03)
 number of electron      21.0000000 magnetization 
 augmentation part       21.0000000 magnetization 

 Free energy of the ion-electron system (eV)
  ---------------------------------------------------
  alpha Z        PSCENC =       113.14026575
  Ewald energy   TEWEN  =      -943.85641512
  -Hartree energ DENC   =       -62.31105697
  -exchange      EXHF   =         0.00000000
  -V(xc)+E(xc)   XCENC  =      -186.11490356
  PAW double counting   =       860.66142593     -653.62832050
  entropy T*S    EENTRO =        -0.00036643
  eigenvalues    EBANDS =       229.71924842
  atomic energy  EATOM  =       717.15047966
  Solvation  Ediel_sol  =         0.00000000
  ---------------------------------------------------
  free energy    TOTEN  =        74.76035719 eV

  energy without entropy =       74.76072362  energy(sigma->0) =       74.76047934


--------------------------------------------------------------------------------------------------------




--------------------------------------- Iteration      1(   2)  ---------------------------------------


     EDDAV:  cpu time   12.8300: real time   12.8820
       DOS:  cpu time    0.0790: real time    0.0789
    --------------------------------------------
      LOOP:  cpu time   12.9090: real time   12.9609

 eigenvalue-minimisations  :  4928
 total energy-change (2. order) :-0.1006962E+03  (-0.9845498E+02)
 number of electron      21.0000000 magnetization 
 augmentation part       21.0000000 magnetization 

 Free energy of the ion-electron system (eV)
  ---------------------------------------------------
  alpha Z        PSCENC =       113.14026575
  Ewald energy   TEWEN  =      -943.85641512
  -Hartree energ DENC   =       -62.31105697
  -exchange      EXHF   =         0.00000000
  -V(xc)+E(xc)   XCENC  =      -186.11490356
  PAW double counting   =       860.66142593     -653.62832050
  entropy T*S    EENTRO =        -0.00361030
  eigenvalues    EBANDS =       129.02626704
  atomic energy  EATOM  =       717.15047966
  Solvation  Ediel_sol  =         0.00000000
  ---------------------------------------------------
  free energy    TOTEN  =       -25.93586806 eV

  energy without entropy =      -25.93225776  energy(sigma->0) =      -25.93466463


--------------------------------------------------------------------------------------------------------




--------------------------------------- Iteration      1(   3)  ---------------------------------------


     EDDAV:  cpu time   20.7498: real time   20.8373
       DOS:  cpu time    0.0850: real time    0.0849
    --------------------------------------------
      LOOP:  cpu time   20.8348: real time   20.9222

 eigenvalue-minimisations  :  9274
 total energy-change (2. order) :-0.1653120E+02  (-0.1585765E+02)
 number of electron      21.0000000 magnetization 
 augmentation part       21.0000000 magnetization 

 Free energy of the ion-electron system (eV)
  ---------------------------------------------------
  alpha Z        PSCENC =       113.14026575
  Ewald energy   TEWEN  =      -943.85641512
  -Hartree energ DENC   =       -62.31105697
  -exchange      EXHF   =         0.00000000
  -V(xc)+E(xc)   XCENC  =      -186.11490356
  PAW double counting   =       860.66142593     -653.62832050
  entropy T*S    EENTRO =         0.00165261
  eigenvalues    EBANDS =       112.48980730
  atomic energy  EATOM  =       717.15047966
  Solvation  Ediel_sol  =         0.00000000
  ---------------------------------------------------
  free energy    TOTEN  =       -42.46706489 eV

  energy without entropy =      -42.46871750  energy(sigma->0) =      -42.46761576


--------------------------------------------------------------------------------------------------------




--------------------------------------- Iteration      1(   4)  ---------------------------------------


     EDDAV:  cpu time   19.0351: real time   19.1137
       DOS:  cpu time    0.0900: real time    0.0904
    --------------------------------------------
      LOOP:  cpu time   19.1251: real time   19.2040

 eigenvalue-minimisations  :  8368
 total energy-change (2. order) :-0.1177983E+01  (-0.1117924E+01)
 number of electron      21.0000000 magnetization 
 augmentation part       21.0000000 magnetization 

 Free energy of the ion-electron system (eV)
  ---------------------------------------------------
  alpha Z        PSCENC =       113.14026575
  Ewald energy   TEWEN  =      -943.85641512
  -Hartree energ DENC   =       -62.31105697
  -exchange      EXHF   =         0.00000000
  -V(xc)+E(xc)   XCENC  =      -186.11490356
  PAW double counting   =       860.66142593     -653.62832050
  entropy T*S    EENTRO =         0.00026933
  eigenvalues    EBANDS =       111.31320713
  atomic energy  EATOM  =       717.15047966
  Solvation  Ediel_sol  =         0.00000000
  ---------------------------------------------------
  free energy    TOTEN  =       -43.64504834 eV

  energy without entropy =      -43.64531767  energy(sigma->0) =      -43.64513812


--------------------------------------------------------------------------------------------------------




--------------------------------------- Iteration      1(   5)  ---------------------------------------


     EDDAV:  cpu time   18.9811: real time   19.0579
       DOS:  cpu time    0.0920: real time    0.0917
    CHARGE:  cpu time    2.0977: real time    2.1057
    MIXING:  cpu time    0.0060: real time    0.0067
    --------------------------------------------
      LOOP:  cpu time   21.1768: real time   21.2621

 eigenvalue-minimisations  :  8336
 total energy-change (2. order) :-0.4782556E-01  (-0.4599702E-01)
 number of electron      21.0000009 magnetization 
 augmentation part        4.4747293 magnetization 

 Broyden mixing:
  rms(total) = 0.30663E+01    rms(broyden)= 0.30662E+01
  rms(prec ) = 0.33962E+01
  weight for this iteration     100.00

 Free energy of the ion-electron system (eV)
  ---------------------------------------------------
  alpha Z        PSCENC =       113.14026575
  Ewald energy   TEWEN  =      -943.85641512
  -Hartree energ DENC   =       -62.31105697
  -exchange      EXHF   =         0.00000000
  -V(xc)+E(xc)   XCENC  =      -186.11490356
  PAW double counting   =       860.66142593     -653.62832050
  entropy T*S    EENTRO =         0.00035611
  eigenvalues    EBANDS =       111.26529479
  atomic energy  EATOM  =       717.15047966
  Solvation  Ediel_sol  =         0.00000000
  ---------------------------------------------------
  free energy    TOTEN  =       -43.69287390 eV

  energy without entropy =      -43.69323001  energy(sigma->0) =      -43.69299261


--------------------------------------------------------------------------------------------------------




--------------------------------------- Iteration      1(   6)  ---------------------------------------


    POTLOK:  cpu time    0.1800: real time    0.1810
    SETDIJ:  cpu time    0.0790: real time    0.0787
     EDDAV:  cpu time   20.4469: real time   20.5314
       DOS:  cpu time    0.1000: real time    0.0994
    CHARGE:  cpu time    1.9817: real time    1.9903
    MIXING:  cpu time    0.0080: real time    0.0075
    --------------------------------------------
      LOOP:  cpu time   22.7955: real time   22.8883

 eigenvalue-minimisations  :  9118
 total energy-change (2. order) : 0.1930339E+01  (-0.4780774E+01)
 number of electron      21.0000014 magnetization 
 augmentation part        6.8692566 magnetization 

 Broyden mixing:
  rms(total) = 0.13867E+01    rms(broyden)= 0.13865E+01
  rms(prec ) = 0.29958E+01
  weight for this iteration     100.00

 eigenvalues of (default mixing * dielectric matrix)
  average eigenvalue GAMMA=   1.0101
  1.0101

 Free energy of the ion-electron system (eV)
  ---------------------------------------------------
  alpha Z        PSCENC =       113.14026575
  Ewald energy   TEWEN  =      -943.85641512
  -Hartree energ DENC   =       -43.09075649
  -exchange      EXHF   =         0.00000000
  -V(xc)+E(xc)   XCENC  =      -185.44592970
  PAW double counting   =      1258.66864459    -1050.96604670
  entropy T*S    EENTRO =         0.00081309
  eigenvalues    EBANDS =        92.63641049
  atomic energy  EATOM  =       717.15047966
  Solvation  Ediel_sol  =         0.00000000
  ---------------------------------------------------
  free energy    TOTEN  =       -41.76253442 eV

  energy without entropy =      -41.76334751  energy(sigma->0) =      -41.76280545


--------------------------------------------------------------------------------------------------------




--------------------------------------- Iteration      1(   7)  ---------------------------------------


    POTLOK:  cpu time    0.1720: real time    0.1734
    SETDIJ:  cpu time    0.0770: real time    0.0769
     EDDAV:  cpu time   21.4497: real time   21.5351
       DOS:  cpu time    0.0880: real time    0.0879
    CHARGE:  cpu time    1.9627: real time    1.9699
    MIXING:  cpu time    0.0070: real time    0.0073
    --------------------------------------------
      LOOP:  cpu time   23.7564: real time   23.8506

 eigenvalue-minimisations  :  9716
 total energy-change (2. order) : 0.6515920E-01  (-0.8675633E+01)
 number of electron      21.0000009 magnetization 
 augmentation part        5.1685381 magnetization 

 Broyden mixing:
  rms(total) = 0.14012E+01    rms(broyden)= 0.14010E+01
  rms(prec ) = 0.32742E+01
  weight for this iteration     100.00

 eigenvalues of (default mixing * dielectric matrix)
  average eigenvalue GAMMA=   0.8872
  1.4468  0.3276

 Free energy of the ion-electron system (eV)
  ---------------------------------------------------
  alpha Z        PSCENC =       113.14026575
  Ewald energy   TEWEN  =      -943.85641512
  -Hartree energ DENC   =       -42.02045610
  -exchange      EXHF   =         0.00000000
  -V(xc)+E(xc)   XCENC  =      -185.32231555
  PAW double counting   =      1357.84720145    -1152.31550779
  entropy T*S    EENTRO =        -0.00519285
  eigenvalues    EBANDS =        93.68456533
  atomic energy  EATOM  =       717.15047966
  Solvation  Ediel_sol  =         0.00000000
  ---------------------------------------------------
  free energy    TOTEN  =       -41.69737522 eV

  energy without entropy =      -41.69218237  energy(sigma->0) =      -41.69564427


--------------------------------------------------------------------------------------------------------




--------------------------------------- Iteration      1(   8)  ---------------------------------------


    POTLOK:  cpu time    0.1770: real time    0.1774
    SETDIJ:  cpu time    0.0780: real time    0.0784
     EDDAV:  cpu time   20.0939: real time   20.1745
       DOS:  cpu time    0.0930: real time    0.0937
    CHARGE:  cpu time    2.0387: real time    2.0466
    MIXING:  cpu time    0.0080: real time    0.0078
    --------------------------------------------
      LOOP:  cpu time   22.4886: real time   22.5784

 eigenvalue-minimisations  :  8810
 total energy-change (2. order) : 0.1226430E+00  (-0.5578477E+01)
 number of electron      21.0000010 magnetization 
 augmentation part        6.1247724 magnetization 

 Broyden mixing:
  rms(total) = 0.17827E+01    rms(broyden)= 0.17825E+01
  rms(prec ) = 0.34466E+01
  weight for this iteration     100.00

 eigenvalues of (default mixing * dielectric matrix)
  average eigenvalue GAMMA=   0.7189
  1.6015  0.4105  0.1449

 Free energy of the ion-electron system (eV)
  ---------------------------------------------------
  alpha Z        PSCENC =       113.14026575
  Ewald energy   TEWEN  =      -943.85641512
  -Hartree energ DENC   =       -39.48493553
  -exchange      EXHF   =         0.00000000
  -V(xc)+E(xc)   XCENC  =      -185.09966853
  PAW double counting   =      1561.71190142    -1356.77974496
  entropy T*S    EENTRO =        -0.00109236
  eigenvalues    EBANDS =        91.64447744
  atomic energy  EATOM  =       717.15047966
  Solvation  Ediel_sol  =         0.00000000
  ---------------------------------------------------
  free energy    TOTEN  =       -41.57473223 eV

  energy without entropy =      -41.57363987  energy(sigma->0) =      -41.57436811


--------------------------------------------------------------------------------------------------------




--------------------------------------- Iteration      1(   9)  ---------------------------------------


    POTLOK:  cpu time    0.1740: real time    0.1757
    SETDIJ:  cpu time    0.0780: real time    0.0786
     EDDAV:  cpu time   19.0941: real time   19.1732
       DOS:  cpu time    0.0960: real time    0.0959
    CHARGE:  cpu time    2.0507: real time    2.0592
    MIXING:  cpu time    0.0080: real time    0.0081
    --------------------------------------------
      LOOP:  cpu time   21.5007: real time   21.5906

 eigenvalue-minimisations  :  8408
 total energy-change (2. order) : 0.2941345E+01  (-0.3845359E+01)
 number of electron      21.0000011 magnetization 
 augmentation part        5.9731387 magnetization 

 Broyden mixing:
  rms(total) = 0.57655E+00    rms(broyden)= 0.57604E+00
  rms(prec ) = 0.97987E+00
  weight for this iteration     100.00

 eigenvalues of (default mixing * dielectric matrix)
  average eigenvalue GAMMA=   0.9633
  2.3250  1.0748  0.3077  0.1456

 Free energy of the ion-electron system (eV)
  ---------------------------------------------------
  alpha Z        PSCENC =       113.14026575
  Ewald energy   TEWEN  =      -943.85641512
  -Hartree energ DENC   =       -38.32876687
  -exchange      EXHF   =         0.00000000
  -V(xc)+E(xc)   XCENC  =      -185.04013607
  PAW double counting   =      1639.80948857    -1435.06719917
  entropy T*S    EENTRO =         0.00421460
  eigenvalues    EBANDS =        93.55468181
  atomic energy  EATOM  =       717.15047966
  Solvation  Ediel_sol  =         0.00000000
  ---------------------------------------------------
  free energy    TOTEN  =       -38.63338684 eV

  energy without entropy =      -38.63760144  energy(sigma->0) =      -38.63479170


--------------------------------------------------------------------------------------------------------




--------------------------------------- Iteration      1(  10)  ---------------------------------------


    POTLOK:  cpu time    0.1750: real time    0.1759
    SETDIJ:  cpu time    0.0790: real time    0.0785
     EDDAV:  cpu time   19.1151: real time   19.1926
       DOS:  cpu time    0.0970: real time    0.0969
    CHARGE:  cpu time    2.0497: real time    2.0583
    MIXING:  cpu time    0.0090: real time    0.0084
    --------------------------------------------
      LOOP:  cpu time   21.5247: real time   21.6106

 eigenvalue-minimisations  :  8424
 total energy-change (2. order) : 0.1909302E+00  (-0.2018331E+00)
 number of electron      21.0000012 magnetization 
 augmentation part        6.1029002 magnetization 

 Broyden mixing:
  rms(total) = 0.12741E+00    rms(broyden)= 0.12709E+00
  rms(prec ) = 0.19119E+00
  weight for this iteration     100.00

 eigenvalues of (default mixing * dielectric matrix)
  average eigenvalue GAMMA=   0.9720
  2.3187  1.2590  0.8194  0.3155  0.1473

 Free energy of the ion-electron system (eV)
  ---------------------------------------------------
  alpha Z        PSCENC =       113.14026575
  Ewald energy   TEWEN  =      -943.85641512
  -Hartree energ DENC   =       -36.89647759
  -exchange      EXHF   =         0.00000000
  -V(xc)+E(xc)   XCENC  =      -184.85080460
  PAW double counting   =      1829.69937661    -1625.96327721
  entropy T*S    EENTRO =         0.00497676
  eigenvalues    EBANDS =        93.12941915
  atomic energy  EATOM  =       717.15047966
  Solvation  Ediel_sol  =         0.00000000
  ---------------------------------------------------
  free energy    TOTEN  =       -38.44245660 eV

  energy without entropy =      -38.44743335  energy(sigma->0) =      -38.44411552


--------------------------------------------------------------------------------------------------------




--------------------------------------- Iteration      1(  11)  ---------------------------------------


    POTLOK:  cpu time    0.1750: real time    0.1849
    SETDIJ:  cpu time    0.0780: real time    0.0785
     EDDAV:  cpu time   19.2081: real time   19.2837
       DOS:  cpu time    0.0970: real time    0.0976
    CHARGE:  cpu time    2.0627: real time    2.0683
    MIXING:  cpu time    0.0090: real time    0.0088
    --------------------------------------------
      LOOP:  cpu time   21.6297: real time   21.7218

 eigenvalue-minimisations  :  8390
 total energy-change (2. order) : 0.1221974E-01  (-0.1112686E-01)
 number of electron      21.0000012 magnetization 
 augmentation part        6.0885800 magnetization 

 Broyden mixing:
  rms(total) = 0.65722E-01    rms(broyden)= 0.65707E-01
  rms(prec ) = 0.79720E-01
  weight for this iteration     100.00

 eigenvalues of (default mixing * dielectric matrix)
  average eigenvalue GAMMA=   1.2268
  2.4521  2.4521  0.9967  0.9967  0.3160  0.1471

 Free energy of the ion-electron system (eV)
  ---------------------------------------------------
  alpha Z        PSCENC =       113.14026575
  Ewald energy   TEWEN  =      -943.85641512
  -Hartree energ DENC   =       -36.50918812
  -exchange      EXHF   =         0.00000000
  -V(xc)+E(xc)   XCENC  =      -184.81337623
  PAW double counting   =      1850.05857226    -1646.43571005
  entropy T*S    EENTRO =         0.00495687
  eigenvalues    EBANDS =        92.83017812
  atomic energy  EATOM  =       717.15047966
  Solvation  Ediel_sol  =         0.00000000
  ---------------------------------------------------
  free energy    TOTEN  =       -38.43023686 eV

  energy without entropy =      -38.43519373  energy(sigma->0) =      -38.43188915


--------------------------------------------------------------------------------------------------------




--------------------------------------- Iteration      1(  12)  ---------------------------------------


    POTLOK:  cpu time    0.1710: real time    0.1720
    SETDIJ:  cpu time    0.0760: real time    0.0760
     EDDAV:  cpu time   20.7888: real time   20.8613
       DOS:  cpu time    0.0970: real time    0.0969
    CHARGE:  cpu time    1.9157: real time    1.9226
    MIXING:  cpu time    0.0090: real time    0.0090
    --------------------------------------------
      LOOP:  cpu time   23.0585: real time   23.1379

 eigenvalue-minimisations  :  9232
 total energy-change (2. order) :-0.5050475E-03  (-0.2973504E-02)
 number of electron      21.0000011 magnetization 
 augmentation part        6.0755485 magnetization 

 Broyden mixing:
  rms(total) = 0.23520E-01    rms(broyden)= 0.23508E-01
  rms(prec ) = 0.38845E-01
  weight for this iteration     100.00

 eigenvalues of (default mixing * dielectric matrix)
  average eigenvalue GAMMA=   1.2500
  2.5924  2.5924  1.0929  1.0929  0.9165  0.3160  0.1471

 Free energy of the ion-electron system (eV)
  ---------------------------------------------------
  alpha Z        PSCENC =       113.14026575
  Ewald energy   TEWEN  =      -943.85641512
  -Hartree energ DENC   =       -36.39695327
  -exchange      EXHF   =         0.00000000
  -V(xc)+E(xc)   XCENC  =      -184.79587114
  PAW double counting   =      1841.96501557    -1638.33634029
  entropy T*S    EENTRO =         0.00492792
  eigenvalues    EBANDS =        92.69414901
  atomic energy  EATOM  =       717.15047966
  Solvation  Ediel_sol  =         0.00000000
  ---------------------------------------------------
  free energy    TOTEN  =       -38.43074190 eV

  energy without entropy =      -38.43566983  energy(sigma->0) =      -38.43238454


--------------------------------------------------------------------------------------------------------




--------------------------------------- Iteration      1(  13)  ---------------------------------------


    POTLOK:  cpu time    0.1730: real time    0.1726
    SETDIJ:  cpu time    0.0750: real time    0.0761
     EDDAV:  cpu time   21.5597: real time   21.6379
       DOS:  cpu time    0.0970: real time    0.0982
    CHARGE:  cpu time    2.0297: real time    2.0355
    MIXING:  cpu time    0.0090: real time    0.0096
    --------------------------------------------
      LOOP:  cpu time   23.9424: real time   24.0298

 eigenvalue-minimisations  :  9598
 total energy-change (2. order) : 0.4606185E-03  (-0.6463054E-03)
 number of electron      21.0000012 magnetization 
 augmentation part        6.0901575 magnetization 

 Broyden mixing:
  rms(total) = 0.79761E-02    rms(broyden)= 0.79730E-02
  rms(prec ) = 0.17736E-01
  weight for this iteration     100.00

 eigenvalues of (default mixing * dielectric matrix)
  average eigenvalue GAMMA=   1.2272
  2.5400  1.9074  1.9074  0.1471  0.3160  1.0775  0.9611  0.9611

 Free energy of the ion-electron system (eV)
  ---------------------------------------------------
  alpha Z        PSCENC =       113.14026575
  Ewald energy   TEWEN  =      -943.85641512
  -Hartree energ DENC   =       -36.44801146
  -exchange      EXHF   =         0.00000000
  -V(xc)+E(xc)   XCENC  =      -184.80008597
  PAW double counting   =      1837.68444321    -1634.03895552
  entropy T*S    EENTRO =         0.00498964
  eigenvalues    EBANDS =        92.73300852
  atomic energy  EATOM  =       717.15047966
  Solvation  Ediel_sol  =         0.00000000
  ---------------------------------------------------
  free energy    TOTEN  =       -38.43028129 eV

  energy without entropy =      -38.43527093  energy(sigma->0) =      -38.43194450


--------------------------------------------------------------------------------------------------------




--------------------------------------- Iteration      1(  14)  ---------------------------------------


    POTLOK:  cpu time    0.1760: real time    0.1762
    SETDIJ:  cpu time    0.0780: real time    0.0789
     EDDAV:  cpu time   20.3359: real time   20.4163
       DOS:  cpu time    0.0930: real time    0.0936
    CHARGE:  cpu time    2.0467: real time    2.0561
    MIXING:  cpu time    0.0100: real time    0.0100
    --------------------------------------------
      LOOP:  cpu time   22.7395: real time   22.8310

 eigenvalue-minimisations  :  8936
 total energy-change (2. order) : 0.1099004E-03  (-0.9104994E-04)
 number of electron      21.0000012 magnetization 
 augmentation part        6.0830760 magnetization 

 Broyden mixing:
  rms(total) = 0.30115E-02    rms(broyden)= 0.30100E-02
  rms(prec ) = 0.36390E-02
  weight for this iteration     100.00

 eigenvalues of (default mixing * dielectric matrix)
  average eigenvalue GAMMA=   1.1984
  2.3474  2.3474  1.7117  0.1471  0.3160  1.0548  1.0548  1.0115  0.7953

 Free energy of the ion-electron system (eV)
  ---------------------------------------------------
  alpha Z        PSCENC =       113.14026575
  Ewald energy   TEWEN  =      -943.85641512
  -Hartree energ DENC   =       -36.44678896
  -exchange      EXHF   =         0.00000000
  -V(xc)+E(xc)   XCENC  =      -184.79945393
  PAW double counting   =      1842.84934776    -1639.23516865
  entropy T*S    EENTRO =         0.00501150
  eigenvalues    EBANDS =        92.76255061
  atomic energy  EATOM  =       717.15047966
  Solvation  Ediel_sol  =         0.00000000
  ---------------------------------------------------
  free energy    TOTEN  =       -38.43017138 eV

  energy without entropy =      -38.43518289  energy(sigma->0) =      -38.43184189


--------------------------------------------------------------------------------------------------------




--------------------------------------- Iteration      1(  15)  ---------------------------------------


    POTLOK:  cpu time    0.1760: real time    0.1757
    SETDIJ:  cpu time    0.0770: real time    0.0784
     EDDAV:  cpu time   14.7688: real time   14.8140
       DOS:  cpu time    0.0920: real time    0.0911
    --------------------------------------------
      LOOP:  cpu time   15.1137: real time   15.1592

 eigenvalue-minimisations  :  5900
 total energy-change (2. order) : 0.7172005E-05  (-0.1649840E-05)
 number of electron      21.0000012 magnetization 
 augmentation part        6.0830760 magnetization 

 Free energy of the ion-electron system (eV)
  ---------------------------------------------------
  alpha Z        PSCENC =       113.14026575
  Ewald energy   TEWEN  =      -943.85641512
  -Hartree energ DENC   =       -36.45140577
  -exchange      EXHF   =         0.00000000
  -V(xc)+E(xc)   XCENC  =      -184.80065682
  PAW double counting   =      1842.08492483    -1638.46436170
  entropy T*S    EENTRO =         0.00502606
  eigenvalues    EBANDS =        92.76197889
  atomic energy  EATOM  =       717.15047966
  Solvation  Ediel_sol  =         0.00000000
  ---------------------------------------------------
  free energy    TOTEN  =       -38.43016421 eV

  energy without entropy =      -38.43519027  energy(sigma->0) =      -38.43183957


--------------------------------------------------------------------------------------------------------




 average (electrostatic) potential at core
  the test charge radii are     1.2064  1.1823
  (the norm of the test charge is              1.0000)
       1 -39.1694       2 -39.1952       3 -39.1694       4 -38.4581
 
 
 
 E-fermi :   6.5731     XC(G=0): -12.5816     alpha+bet :-14.8395


 k-point     1 :       1.0000    0.7500    0.0000
  band No.  band energies     occupation 
      1      -1.4049      2.00000
      2       0.6461      2.00000
      3       1.8495      2.00000
      4       2.9279      2.00000
      5       5.6635      2.00000
      6       6.0890      2.00328
      7       6.0912      2.00344
      8       6.0912      2.00344
      9       6.5494      1.19867
     10       6.6523      0.38427
     11       6.6523      0.38425
     12       6.8227     -0.07075
     13       6.8237     -0.07067
     14       6.9460     -0.02416

 k-point     2 :       0.0323    0.6048    0.0000
  band No.  band energies     occupation 
      1      -1.3124      2.00000
      2       0.5129      2.00000
      3       1.8965      2.00000
      4       3.1023      2.00000
      5       5.8520      2.00000
      6       6.0358      2.00097
      7       6.1438      2.00969
      8       6.2431      2.04157
      9       6.4420      1.88676
     10       6.5936      0.82761
     11       6.7287      0.03154
     12       6.7328      0.02055
     13       6.7777     -0.05469
     14       6.8019     -0.06868

 k-point     3 :       0.0645    0.4597    0.0000
  band No.  band energies     occupation 
      1      -1.1797      2.00000
      2       0.6050      2.00000
      3       1.9978      2.00000
      4       3.1789      2.00000
      5       5.7918      2.00000
      6       5.8597      2.00001
      7       6.1253      2.00685
      8       6.2597      2.04921
      9       6.3353      2.07050
     10       6.4943      1.61268
     11       6.6871      0.18748
     12       6.7968     -0.06692
     13       6.8307     -0.06978
     14       6.9321     -0.02926

 k-point     4 :       0.0968    0.3145    0.0000
[...]
     13       7.3879     -0.00000
     14       7.7981     -0.00000

 k-point   163 :       0.4839    0.3145    0.2258
  band No.  band energies     occupation 
      1       2.8828      2.00000
      2       3.1669      2.00000
      3       3.7319      2.00000
      4       4.2788      2.00000
      5       4.3191      2.00000
      6       4.6371      2.00000
      7       4.9455      2.00000
      8       5.2823      2.00000
      9       5.6346      2.00000
     10       5.9983      2.00037
     11       6.0557      2.00156
     12       6.4409      1.89101
     13       7.3982     -0.00000
     14       8.0128     -0.00000

 k-point   164 :       0.5161    0.1694    0.2258
  band No.  band energies     occupation 
      1       2.8704      2.00000
      2       3.0687      2.00000
      3       3.6001      2.00000
      4       4.1613      2.00000
      5       4.3194      2.00000
      6       4.6674      2.00000
      7       5.1563      2.00000
      8       5.2256      2.00000
      9       5.5339      2.00000
     10       5.8888      2.00001
     11       6.0802      2.00271
     12       6.3683      2.05490
     13       7.5115     -0.00000
     14       7.7685     -0.00000

 k-point   165 :       0.2581    0.0081    0.2581
  band No.  band energies     occupation 
      1       2.9279      2.00000
      2       3.3773      2.00000
      3       3.6472      2.00000
      4       4.1613      2.00000
      5       4.4494      2.00000
      6       4.6606      2.00000
      7       4.9755      2.00000
      8       5.3546      2.00000
      9       5.4704      2.00000
     10       5.8536      2.00000
     11       6.1173      2.00587
     12       6.4059      1.99723
     13       7.6190     -0.00000
     14       7.7711     -0.00000

 k-point   166 :       0.2903    0.8629    0.2581
  band No.  band energies     occupation 
      1       2.9960      2.00000
      2       3.5064      2.00000
      3       3.8024      2.00000
      4       4.2417      2.00000
      5       4.4661      2.00000
      6       4.7087      2.00000
      7       4.8168      2.00000
      8       5.2001      2.00000
      9       5.5185      2.00000
     10       5.9057      2.00003
     11       6.0162      2.00059
     12       6.4660      1.77782
     13       7.6195     -0.00000
     14       7.8470     -0.00000

 k-point   167 :       0.3226    0.7177    0.2581
  band No.  band energies     occupation 
      1       3.0502      2.00000
      2       3.5438      2.00000
      3       3.9612      2.00000
      4       4.2203      2.00000
      5       4.4402      2.00000
      6       4.6516      2.00000
      7       4.8396      2.00000
      8       5.1408      2.00000
      9       5.6324      2.00000
     10       5.9389      2.00007
     11       6.0772      2.00254
     12       6.4304      1.92903
     13       7.5452     -0.00000
     14       8.0394     -0.00000

 k-point   168 :       0.3548    0.5726    0.2581
  band No.  band energies     occupation 
      1       3.0831      2.00000
      2       3.5573      2.00000
      3       4.0465      2.00000
      4       4.1383      2.00000
      5       4.3820      2.00000
      6       4.6777      2.00000
      7       4.9275      2.00000
      8       5.0741      2.00000
      9       5.8013      2.00000
     10       6.0379      2.00102
     11       6.1219      2.00642
     12       6.2651      2.05171
     13       7.6181     -0.00000
     14       7.8275     -0.00000

 k-point   169 :       0.2903    0.3629    0.2581
  band No.  band energies     occupation 
      1       2.9836      2.00000
      2       3.5048      2.00000
      3       3.7639      2.00000
      4       4.2096      2.00000
      5       4.4912      2.00000
      6       4.5990      2.00000
      7       5.0360      2.00000
      8       5.2945      2.00000
      9       5.5003      2.00000
     10       5.7720      2.00000
     11       6.2344      2.03765
     12       6.4127      1.98103
     13       7.6162     -0.00000
     14       7.8733     -0.00000

 k-point   170 :       0.3226    0.2177    0.2581
  band No.  band energies     occupation 
      1       3.0328      2.00000
      2       3.5280      2.00000
      3       3.9071      2.00000
      4       4.2229      2.00000
      5       4.4719      2.00000
      6       4.6827      2.00000
      7       5.0735      2.00000
      8       5.2363      2.00000
      9       5.3935      2.00000
     10       5.7003      2.00000
     11       6.2036      2.02534
     12       6.5653      1.06552
     13       7.6513     -0.00000
     14       7.7824     -0.00000

 k-point   171 :       0.3548    0.0726    0.2581
  band No.  band energies     occupation 
      1       3.0590      2.00000
      2       3.5424      2.00000
      3       4.0282      2.00000
      4       4.1606      2.00000
      5       4.6036      2.00000
      6       4.6549      2.00000
      7       5.0548      2.00000
      8       5.1045      2.00000
      9       5.3809      2.00000
     10       5.6584      2.00000
     11       6.1484      2.01052
     12       6.7066      0.10388
     13       7.5230     -0.00000
     14       7.9800     -0.00000

 k-point   172 :       0.2903    0.5403    0.2903
  band No.  band energies     occupation 
      1       3.1194      2.00000
      2       3.7334      2.00000
      3       3.8730      2.00000
      4       4.1705      2.00000
      5       4.5330      2.00000
      6       4.6462      2.00000
      7       4.8521      2.00000
      8       5.1471      2.00000
      9       5.5825      2.00000
     10       5.8821      2.00001
     11       6.0172      2.00061
     12       6.3966      2.01648
     13       7.7580     -0.00000
     14       7.8528     -0.00000

 k-point   173 :       0.3226    0.3952    0.2903
  band No.  band energies     occupation 
      1       3.2374      2.00000
      2       3.7930      2.00000
      3       3.9671      2.00000
      4       4.0939      2.00000
      5       4.5076      2.00000
      6       4.6854      2.00000
      7       4.9232      2.00000
      8       5.0676      2.00000
      9       5.6146      2.00000
     10       5.9025      2.00002
     11       6.0747      2.00240
     12       6.2769      2.05698
     13       7.8424     -0.00000
     14       7.9362     -0.00000

 k-point   174 :       0.3548    0.2500    0.2903
  band No.  band energies     occupation 
      1       3.2906      2.00000
      2       3.8729      2.00000
      3       3.8843      2.00000
      4       4.1586      2.00000
      5       4.4908      2.00000
      6       4.7042      2.00000
      7       4.9308      2.00000
      8       4.9810      2.00000
      9       5.5942      2.00000
     10       5.9443      2.00008
     11       6.0054      2.00045
     12       6.3177      2.07013
     13       7.7643     -0.00000
     14       8.0156     -0.00000

 k-point   175 :       0.3871    0.1048    0.2903
  band No.  band energies     occupation 
      1       3.2373      2.00000
      2       3.8224      2.00000
      3       3.9727      2.00000
      4       4.1247      2.00000
      5       4.5282      2.00000
      6       4.6907      2.00000
      7       4.8109      2.00000
      8       5.0383      2.00000
      9       5.6034      2.00000
     10       5.8863      2.00001
     11       5.9860      2.00027
     12       6.3868      2.03289
     13       7.7382     -0.00000
     14       7.9236     -0.00000

 k-point   176 :       0.3226    0.0726    0.3226
  band No.  band energies     occupation 
      1       3.4458      2.00000
      2       3.7143      2.00000
      3       4.0360      2.00000
      4       4.2139      2.00000
      5       4.4328      2.00000
      6       4.7529      2.00000
      7       4.8466      2.00000
      8       4.9447      2.00000
      9       5.7488      2.00000
     10       5.8444      2.00000
     11       6.0057      2.00045
     12       6.2161      2.03004
     13       7.9054     -0.00000
     14       7.9804     -0.00000


--------------------------------------------------------------------------------------------------------


 soft charge-density along one line, spin component           1
         0         1         2         3         4         5         6         7         8         9
 total charge-density along one line
 
 pseudopotential strength for first ion, spin component:           1
 -1.248  -0.003   0.003   0.003   0.000  -1.766  -0.002   0.003
 -0.003  -1.248   0.002  -0.003  -0.003  -0.002  -1.766   0.001
  0.003   0.002  -1.253  -0.002  -0.000   0.003   0.001  -1.771
  0.003  -0.003  -0.002  -1.248  -0.003   0.002  -0.002  -0.001
  0.000  -0.003  -0.000  -0.003  -1.253   0.000  -0.003  -0.000
 -1.766  -0.002   0.003   0.002   0.000  -2.234  -0.002   0.003
 -0.002  -1.766   0.001  -0.002  -0.003  -0.002  -2.234   0.001
  0.003   0.001  -1.771  -0.001  -0.000   0.003   0.001  -2.238
  0.002  -0.002  -0.001  -1.766  -0.003   0.002  -0.002  -0.001
  0.000  -0.003  -0.000  -0.003  -1.771   0.000  -0.002  -0.000
  0.001  -0.001   0.000   0.001  -0.000   0.001  -0.001   0.000
 -0.002   0.002  -0.000  -0.002   0.000  -0.002   0.002  -0.000
  0.007  -0.007   0.004   0.000   0.007   0.007  -0.007   0.004
  0.000  -0.007  -0.008   0.007   0.000   0.000  -0.007  -0.008
 -0.007   0.000  -0.004  -0.007   0.007  -0.007   0.000  -0.004
 -0.009   0.009  -0.005  -0.000  -0.008  -0.009   0.009  -0.005
 -0.000   0.009   0.010  -0.009  -0.000  -0.000   0.009   0.010
  0.009  -0.000   0.005   0.009  -0.008   0.009  -0.000   0.005
 total augmentation occupancy for first ion, spin component:           1
  0.510  -0.045   0.039   0.045  -0.000  -0.659   0.059  -0.057  -0.059   0.000   0.079   0.003  -0.056   0.006   0.056  -0.002
 -0.045   0.510   0.019  -0.045  -0.034   0.059  -0.659  -0.028   0.059   0.049  -0.079  -0.003   0.056   0.056   0.006   0.002
  0.039   0.019   0.524  -0.019   0.000  -0.058  -0.029  -0.756   0.029  -0.000  -0.000  -0.000  -0.019   0.038   0.019  -0.001
  0.045  -0.045  -0.019   0.510  -0.034  -0.059   0.059   0.028  -0.659   0.049   0.079   0.003   0.006  -0.056   0.056   0.000
 -0.000  -0.034   0.000  -0.034   0.524   0.000   0.050   0.000   0.050  -0.756  -0.000   0.000  -0.033  -0.000  -0.033  -0.002
 -0.659   0.059  -0.058  -0.059   0.000   1.656  -0.067   0.091   0.067  -0.000  -0.082  -0.004   0.067  -0.001  -0.067   0.002
  0.059  -0.659  -0.029   0.059   0.050  -0.067   1.656   0.046  -0.067  -0.079   0.082   0.004  -0.067  -0.067  -0.001  -0.002
 -0.057  -0.028  -0.756   0.028   0.000   0.091   0.046   1.573  -0.046   0.000   0.000   0.000   0.023  -0.046  -0.023   0.001
 -0.059   0.059   0.029  -0.659   0.050   0.067  -0.067  -0.046   1.656  -0.079  -0.082  -0.004  -0.001   0.067  -0.067  -0.000
  0.000   0.049   0.000   0.049  -0.756  -0.000  -0.079  -0.000  -0.079   1.573  -0.000   0.000   0.040   0.000   0.040   0.002
  0.079  -0.079  -0.000   0.079   0.000  -0.082   0.082  -0.000  -0.082  -0.000   1.965   0.045  -0.027  -0.027   0.027  -0.001
  0.003  -0.003  -0.000   0.003   0.000  -0.004   0.004   0.000  -0.004   0.000   0.045   0.001  -0.002  -0.002   0.002  -0.000
 -0.056   0.056  -0.019   0.006  -0.033   0.067  -0.067   0.023  -0.001   0.040  -0.027  -0.002   0.380   0.011  -0.011   0.011
  0.006   0.056   0.038  -0.056   0.000  -0.001  -0.067  -0.046   0.067   0.000  -0.027  -0.002   0.011   0.380  -0.011   0.000
  0.056   0.006   0.019   0.056  -0.033  -0.067  -0.001  -0.023  -0.067   0.040   0.027   0.002  -0.011  -0.011   0.380  -0.000
 -0.002   0.002  -0.001   0.000  -0.002   0.002  -0.002   0.001  -0.000   0.002  -0.001  -0.000   0.011   0.000  -0.000   0.000
  0.000   0.002   0.002  -0.002  -0.000  -0.000  -0.002  -0.002   0.002   0.000  -0.001  -0.000   0.000   0.011  -0.000   0.000
  0.002   0.000   0.001   0.002  -0.002  -0.002  -0.000  -0.001  -0.002   0.002   0.001   0.000  -0.000  -0.000   0.011  -0.000


------------------------ aborting loop because EDIFF is reached ----------------------------------------



 ----------------------------------------------------------------------------- 
|                                                                             |
|  ADVICE TO THIS USER RUNNING 'VASP/VAMP'   (HEAR YOUR MASTER'S VOICE ...):  |
|                                                                             |
|      Your highest band is occupied at some k-points! Unless you are         |
|      performing a calculation for an insulator or semiconductor, without    |
|      unoccupied bands, you have included TOO FEW BANDS!! Please increase    |
|      the parameter NBANDS in file INCAR to ensure that the highest band     |
|      is unoccupied at all k-points. It is always recommended to             |
|      include a few unoccupied bands to accelerate the convergence of        |
|      molecular dynamics runs (even for insulators or semiconductors).       |
|      Because the presence of unoccupied bands improves wavefunction         |
|      prediction, and helps to suppress 'band-crossings.'                    |
|      Following all k-points will be listed (with the Fermi weights of       |
|      the highest band given in paranthesis) ... :                           |
|                                                                             |
|                          1       (-0.01208)                                 |
|                          2       (-0.03434)                                 |
|                          3       (-0.01463)                                 |
|                          5       (-0.02547)                                 |
|                         32       (-0.01229)                                 |
|                         34       (-0.02552)                                 |
|                         59       (-0.01626)                                 |
|                         73       (-0.01980)                                 |
|                                                                             |
|      The total occupancy of band no.    14 is  -0.00141 electrons ...       |
|                                                                             |
 ----------------------------------------------------------------------------- 

    CHARGE:  cpu time    1.8937: real time    1.8991
    FORLOC:  cpu time    0.0200: real time    0.0205
    FORNL :  cpu time    3.2945: real time    3.3030
    STRESS:  cpu time    5.6031: real time    5.6230
    FORCOR:  cpu time    0.2050: real time    0.2046
    FORHAR:  cpu time    0.0550: real time    0.0557
    MIXING:  cpu time    0.0100: real time    0.0105
    OFIELD:  cpu time    0.0000: real time    0.0001

  FORCE on cell =-STRESS in cart. coord.  units (eV):
  Direction    XX          YY          ZZ          XY          YZ          ZX
  --------------------------------------------------------------------------------------
  Alpha Z   113.14027   113.14027   113.14027
  Ewald    -314.61894  -314.61894  -314.61894     5.10586    -5.10586     5.10586
  Hartree    12.15184    12.15184    12.15184     2.26871    -2.26871     2.26871
  E(xc)     -93.32602   -93.32599   -93.32601    -0.04960     0.04961    -0.04963
  Local      45.69133    45.69137    45.69134    -7.07319     7.07323    -7.07323
  n-local   -21.96667    -5.71331    -8.75204    -1.92580    -9.14630    -6.90750
  augment    64.50855    64.50855    64.50858     0.00974    -0.00964     0.00978
  Kinetic   189.96283   183.48374   184.50329     4.35622    11.55787     6.79196
  Fock        0.00000     0.00000     0.00000     0.00000     0.00000     0.00000
  -------------------------------------------------------------------------------------
  Total       1.38634     1.38634     1.38634     0.22930    -0.22930     0.22930
  in kB      38.92218    38.92218    38.92218     6.43782    -6.43782     6.43782
  external pressure =       38.92 kB  Pullay stress =        0.00 kB


 VOLUME and BASIS-vectors are now :
 -----------------------------------------------------------------------------
  energy-cutoff  :      223.06
  volume of cell :       57.07
      direct lattice vectors                 reciprocal lattice vectors
     1.925000000  1.925000000  0.000000000     0.389610390  0.129870130  0.129870130
    -3.850000000  5.775000000  5.775000000    -0.064935065  0.064935065  0.064935065
     0.000000000 -1.925000000  1.925000000     0.194805195 -0.194805195  0.324675325

  length of vectors
     2.722361108  9.029050338  2.722361108     0.430730492  0.112470832  0.425807696


 FORCES acting on ions
    electron-ion (+dipol)            ewald-force                    non-local-force                 convergence-correction
 -----------------------------------------------------------------------------------------------
   0.197E+02 -.197E+02 -.197E+02   -.200E+02 0.200E+02 0.200E+02   -.261E+00 0.261E+00 0.261E+00   -.365E-01 0.365E-01 0.365E-01
   -.393E-13 0.336E-13 0.708E-13   -.884E-14 0.882E-14 0.885E-14   -.106E-21 0.000E+00 0.000E+00   0.710E-14 -.595E-14 -.696E-14
   -.197E+02 0.197E+02 0.197E+02   0.200E+02 -.200E+02 -.200E+02   0.261E+00 -.261E+00 -.261E+00   0.365E-01 -.365E-01 -.365E-01
   -.306E-15 -.905E-14 -.755E-14   0.138E-13 -.128E-13 -.160E-13   0.212E-21 -.635E-21 -.847E-21   -.724E-14 0.809E-14 0.786E-14
 -----------------------------------------------------------------------------------------------
   0.172E-13 0.452E-13 0.310E-12   0.666E-14 -.565E-14 -.890E-14   -.555E-16 -.635E-21 0.555E-16   -.495E-14 0.276E-14 -.152E-14
 
 
 POSITION                                       TOTAL-FORCE (eV/Angst)
 -----------------------------------------------------------------------------------
      0.00000      1.92500      1.92500        -0.619341      0.619341      0.619341
     -1.92500      1.92500      3.85000         0.000000     -0.000000     -0.000000
     -1.92500      3.85000      5.77500         0.619341     -0.619341     -0.619341
      0.00000      0.00000      0.00000         0.000000      0.000000     -0.000000
 -----------------------------------------------------------------------------------
    total drift:                                0.000000      0.000000      0.000000


--------------------------------------------------------------------------------------------------------



  FREE ENERGIE OF THE ION-ELECTRON SYSTEM (eV)
  ---------------------------------------------------
  free  energy   TOTEN  =       -38.43016421 eV

  energy  without entropy=      -38.43519027  energy(sigma->0) =      -38.43183957
 


--------------------------------------------------------------------------------------------------------


    POTLOK:  cpu time    0.2550: real time    0.2558


--------------------------------------------------------------------------------------------------------


 writing wavefunctions
     LOOP+:  cpu time  317.9427: real time  319.5554
    4ORBIT:  cpu time    0.0010: real time    0.0018

 total amount of memory used by VASP MPI-rank0    80592. kBytes
=======================================================================

   base      :      30000. kBytes
   nonl-proj :      22584. kBytes
   fftplans  :       2748. kBytes
   grid      :       4816. kBytes
   one-center:         62. kBytes
   wavefun   :      20382. kBytes
 
  
  
 General timing and accounting informations for this job:
 ========================================================
  
                  Total CPU time used (sec):      320.672
                            User time (sec):      320.414
                          System time (sec):        0.258
                         Elapsed time (sec):      322.741
  
                   Maximum memory used (kb):       77684.
                   Average memory used (kb):           0.
  
                          Minor page faults:        21278
                          Major page faults:           15
                 Voluntary context switches:          283
