 vasp.6.0.0 18Apr17 (build Mar 23 2018 09:59:13) complex                        
  
 executed on             LinuxIFC date 2018.06.18  11:00:53
 running on    1 total cores
 distrk:  each k-point on    1 cores,    1 groups
 distr:  one band on NCORES_PER_BAND=   1 cores,    1 groups


--------------------------------------------------------------------------------------------------------


 INCAR:
 POTCAR:    PAW_PBE Co 02Aug2007                  
 POTCAR:    PAW_PBE W 08Apr2002                   
 POTCAR:    PAW_PBE Co 02Aug2007                  
   VRHFIN =Co: d8 s1                                                            
   LEXCH  = PE                                                                  
   EATOM  =   813.3670 eV,   59.7808 Ry                                         
                                                                                
   TITEL  = PAW_PBE Co 02Aug2007                                                
   LULTRA =        F    use ultrasoft PP ?                                      
   IUNSCR =        1    unscreen: 0-lin 1-nonlin 2-no                           
   RPACOR =    2.000    partial core radius                                     
   POMASS =   58.933; ZVAL   =    9.000    mass and valenz                      
   RCORE  =    2.300    outmost cutoff radius                                   
   RWIGS  =    2.460; RWIGS  =    1.302    wigner-seitz radius (au A)           
   ENMAX  =  267.968; ENMIN  =  200.976 eV                                      
   RCLOC  =    1.203    cutoff for local pot                                    
   LCOR   =        T    correct aug charges                                     
   LPAW   =        T    paw PP                                                  
   EAUG   =  477.818                                                            
   DEXC   =    0.000                                                            
   RMAX   =    2.360    core radius for proj-oper                               
   RAUG   =    1.300    factor for augmentation sphere                          
   RDEP   =    2.393    radius for radial grids                                 
   RDEPT  =    1.864    core radius for aug-charge                              
                                                                                
   Atomic configuration                                                         
    9 entries                                                                   
     n  l   j            E        occ.                                          
     1  0  0.50     -7587.6674   2.0000                                         
     2  0  0.50      -893.6084   2.0000                                         
     2  1  1.50      -764.5805   6.0000                                         
     3  0  0.50       -97.5973   2.0000                                         
     3  1  1.50       -60.9648   6.0000                                         
     3  2  2.50        -4.2382   8.0000                                         
     4  0  0.50        -4.3746   1.0000                                         
     4  1  1.50        -4.0817   0.0000                                         
     4  3  2.50        -1.3606   0.0000                                         
   Description                                                                  
     l       E           TYP  RCUT    TYP  RCUT                                 
     2     -4.2382362     23  2.300                                             
     2     -5.5988188     23  2.300                                             
     0     -4.3745797     23  2.300                                             
     0      5.7660125     23  2.300                                             
     1     -2.7211652     23  2.300                                             
     1     16.9860234     23  2.300                                             
  local pseudopotential read in
  partial core-charges read in
  partial kinetic energy density read in
  atomic valenz-charges read in
  non local Contribution for L=           2  read in
    real space projection operators read in
  non local Contribution for L=           2  read in
    real space projection operators read in
  non local Contribution for L=           0  read in
    real space projection operators read in
  non local Contribution for L=           0  read in
    real space projection operators read in
  non local Contribution for L=           1  read in
    real space projection operators read in
  non local Contribution for L=           1  read in
    real space projection operators read in
    PAW grid and wavefunctions read in
 
   number of l-projection  operators is LMAX  =           6
   number of lm-projection operators is LMMAX =          18
 
 POTCAR:    PAW_PBE W 08Apr2002                   
   VRHFIN =W : 6s5d                                                             
   LEXCH  = PE                                                                  
   EATOM  =   204.6103 eV,   15.0384 Ry                                         
                                                                                
   TITEL  = PAW_PBE W 08Apr2002                                                 
   LULTRA =        F    use ultrasoft PP ?                                      
   IUNSCR =        1    unscreen: 0-lin 1-nonlin 2-no                           
   RPACOR =    2.330    partial core radius                                     
   POMASS =  183.850; ZVAL   =    6.000    mass and valenz                      
   RCORE  =    2.750    outmost cutoff radius                                   
   RWIGS  =    2.750; RWIGS  =    1.455    wigner-seitz radius (au A)           
   ENMAX  =  223.057; ENMIN  =  167.293 eV                                      
   RCLOC  =    2.147    cutoff for local pot                                    
   LCOR   =        T    correct aug charges                                     
   LPAW   =        T    paw PP                                                  
   EAUG   =  373.438                                                            
   DEXC   =    0.000                                                            
   RMAX   =    2.801    core radius for proj-oper                               
   RAUG   =    1.300    factor for augmentation sphere                          
   RDEP   =    2.886    radius for radial grids                                 
   RDEPT  =    2.230    core radius for aug-charge                              
                                                                                
   Atomic configuration                                                         
   16 entries                                                                   
     n  l   j            E        occ.                                          
     1  0  0.50    -69465.5836   2.0000                                         
     2  0  0.50    -11986.2642   2.0000                                         
     2  1  1.50    -10479.8616   6.0000                                         
     3  0  0.50     -2759.0758   2.0000                                         
     3  1  1.50     -2313.1857   6.0000                                         
     3  2  2.50     -1801.1185  10.0000                                         
     4  0  0.50      -567.6791   2.0000                                         
     4  1  1.50      -421.4694   6.0000                                         
     4  2  2.50      -236.3473  10.0000                                         
     4  3  3.50       -31.2666  14.0000                                         
     5  0  0.50       -77.1085   2.0000                                         
     5  1  1.50       -41.3856   6.0000                                         
     5  2  2.50        -3.3185   5.0000                                         
     6  0  0.50        -5.1438   1.0000                                         
     6  1  0.50        -3.8096   0.0000                                         
     5  3  2.50        -1.3606   0.0000                                         
   Description                                                                  
     l       E           TYP  RCUT    TYP  RCUT                                 
     2     -3.3185288     23  2.500                                             
     2     -1.5965414     23  2.500                                             
     0     -5.1438054     23  2.500                                             
     0      4.9117504     23  2.500                                             
     1      2.7211652     23  2.750                                             
     1     27.2116520     23  2.750                                             
  local pseudopotential read in
  partial core-charges read in
  partial kinetic energy density read in
  atomic valenz-charges read in
  non local Contribution for L=           2  read in
    real space projection operators read in
  non local Contribution for L=           2  read in
    real space projection operators read in
  non local Contribution for L=           0  read in
    real space projection operators read in
  non local Contribution for L=           0  read in
    real space projection operators read in
  non local Contribution for L=           1  read in
    real space projection operators read in
  non local Contribution for L=           1  read in
    real space projection operators read in
    PAW grid and wavefunctions read in
 
   number of l-projection  operators is LMAX  =           6
   number of lm-projection operators is LMMAX =          18
 
  PAW_PBE Co 02Aug2007                  :
 energy of atom  1       EATOM= -813.3670
 kinetic energy error for atom=    0.0366 (will be added to EATOM!!)
  PAW_PBE W 08Apr2002                   :
 energy of atom  2       EATOM= -204.6103
 kinetic energy error for atom=    0.0220 (will be added to EATOM!!)
 
 
 POSCAR: Co  W                                   
  positions in cartesian coordinates
  No initial velocities read in
 exchange correlation table for  LEXCH =        8
   RHO(1)=    0.500       N(1)  =     2000
   RHO(2)=  100.500       N(2)  =     4000
 


--------------------------------------------------------------------------------------------------------


 ion  position               nearest neighbor table
   1  0.000  0.000  0.000-   2 2.67   2 2.67   2 2.67   2 2.67   2 2.67   2 2.67   2 2.67   2 2.67

   2  0.500  0.500  0.500-   1 2.67   1 2.67   1 2.67   1 2.67   1 2.67   1 2.67   1 2.67   1 2.67

 
  LATTYP: Found a simple tetragonal cell.
 ALAT       =     2.6657925651
 C/A-ratio  =     1.4142135624
  
  Lattice vectors:
  
 A1 = (   1.8850000000,   1.8850000000,   0.0000000000)
 A2 = (  -1.8850000000,   1.8850000000,   0.0000000000)
 A3 = (   0.0000000000,   0.0000000000,   3.7700000000)


Analysis of symmetry for initial positions (statically):
=====================================================================
 Subroutine PRICEL returns:
 Original cell was already a primitive cell.
 

 Routine SETGRP: Setting up the symmetry group for a 
 simple tetragonal supercell.


 Subroutine GETGRP returns: Found 16 space group operations
 (whereof 16 operations were pure point group operations)
 out of a pool of 16 trial point group operations.


The static configuration has the point symmetry D_4h.


Analysis of symmetry for dynamics (positions and initial velocities):
=====================================================================
 Subroutine PRICEL returns:
 Original cell was already a primitive cell.
 

 Routine SETGRP: Setting up the symmetry group for a 
 simple tetragonal supercell.


 Subroutine GETGRP returns: Found 16 space group operations
 (whereof 16 operations were pure point group operations)
 out of a pool of 16 trial point group operations.


The dynamic configuration has the point symmetry D_4h.


 Subroutine INISYM returns: Found 16 space group operations
 (whereof 16 operations are pure point group operations),
 and found     1 'primitive' translations

 
 
 KPOINTS: Server version 2018.05.22. K-point grid 
  k-points in reciprocal lattice
Space group operators:
 irot       det(A)        alpha          n_x          n_y          n_z        tau_x        tau_y        tau_z
    1     1.000000     0.000001     1.000000     0.000000     0.000000     0.000000     0.000000     0.000000
    2    -1.000000     0.000001     1.000000     0.000000     0.000000     0.000000     0.000000     0.000000
    3     1.000000    90.000000     0.000000     0.000000    -1.000000     0.000000     0.000000     0.000000
    4    -1.000000    90.000000     0.000000     0.000000    -1.000000     0.000000     0.000000     0.000000
    5     1.000000   180.000000     0.000000     0.000000     1.000000     0.000000     0.000000     0.000000
    6    -1.000000   180.000000     0.000000     0.000000     1.000000     0.000000     0.000000     0.000000
    7     1.000000    90.000000     0.000000     0.000000     1.000000     0.000000     0.000000     0.000000
    8    -1.000000    90.000000     0.000000     0.000000     1.000000     0.000000     0.000000     0.000000
    9     1.000000   180.000000     0.707107    -0.707107     0.000000     0.000000     0.000000     0.000000
   10    -1.000000   180.000000     0.707107    -0.707107     0.000000     0.000000     0.000000     0.000000
   11     1.000000   180.000000     0.000000     1.000000     0.000000     0.000000     0.000000     0.000000
   12    -1.000000   180.000000     0.000000     1.000000     0.000000     0.000000     0.000000     0.000000
   13     1.000000   180.000000     0.707107     0.707107     0.000000     0.000000     0.000000     0.000000
   14    -1.000000   180.000000     0.707107     0.707107     0.000000     0.000000     0.000000     0.000000
   15     1.000000   180.000000     1.000000     0.000000     0.000000     0.000000     0.000000     0.000000
   16    -1.000000   180.000000     1.000000     0.000000     0.000000     0.000000     0.000000     0.000000


--------------------------------------------------------------------------------------------------------




 Dimension of arrays:
   k-points           NKPTS =    320   k-points in BZ     NKDIM =    320   number of bands    NBANDS=     11
   number of dos      NEDOS =    301   number of ions     NIONS =      2
   non local maximal  LDIM  =      6   non local SUM 2l+1 LMDIM =     18
   total plane-waves  NPLWV =   3920
   max r-space proj   IRMAX =      1   max aug-charges    IRDMAX=   8550
   dimension x,y,z NGX =    14 NGY =   14 NGZ =   20
   dimension x,y,z NGXF=    28 NGYF=   28 NGZF=   40
   support grid    NGXF=    28 NGYF=   28 NGZF=   40
   ions per type =               1   1
   NGX,Y,Z   is equivalent  to a cutoff of   8.73,  8.73,  8.82 a.u.
   NGXF,Y,Z  is equivalent  to a cutoff of  17.46, 17.46, 17.64 a.u.

 SYSTEM =  unknown system                          
 POSCAR =  Co  W                                   

 Startparameter for this run:
   NWRITE =      2    write-flag & timer
   PREC   = a         normal or accurate (medium, high low for compatibility)
   ISTART =      0    job   : 0-new  1-cont  2-samecut
   ICHARG =      2    charge: 1-file 2-atom 10-const
   ISPIN  =      1    spin polarized calculation?
   LNONCOLLINEAR =      F non collinear calculations
   LSORBIT =      F    spin-orbit coupling
   INIWAV =      1    electr: 0-lowe 1-rand  2-diag
   LASPH  =      F    aspherical Exc in radial PAW
   METAGGA=      F    non-selfconsistent MetaGGA calc.

 Electronic Relaxation 1
   ENCUT  =  268.0 eV  19.70 Ry    4.44 a.u.   3.56  3.56  5.03*2*pi/ulx,y,z
   ENINI  =  268.0     initial cutoff
   ENAUG  =  477.8 eV  augmentation charge cutoff
   NELM   =     60;   NELMIN=  2; NELMDL= -5     # of ELM steps 
   EDIFF  = 0.1E-04   stopping-criterion for ELM
   LREAL  =      F    real-space projection
   NLSPLINE    = F    spline interpolate recip. space projectors
   LCOMPAT=      F    compatible to vasp.4.4
   GGA_COMPAT  = T    GGA compatible to vasp.4.4-vasp.4.6
   LMAXPAW     = -100 max onsite density
   LMAXMIX     =    2 max onsite mixed and CHGCAR
   VOSKOWN=      0    Vosko Wilk Nusair interpolation
   ROPT   =    0.00000   0.00000
 Ionic relaxation
   EDIFFG = 0.1E-03   stopping-criterion for IOM
   NSW    =      0    number of steps for IOM
   NBLOCK =      1;   KBLOCK =      1    inner block; outer block 
   IBRION =     -1    ionic relax: 0-MD 1-quasi-New 2-CG
   NFREE  =      0    steps in history (QN), initial steepest desc. (CG)
   ISIF   =      2    stress and relaxation
   IWAVPR =     10    prediction:  0-non 1-charg 2-wave 3-comb
   ISYM   =      2    0-nonsym 1-usesym 2-fastsym
   LCORR  =      T    Harris-Foulkes like correction to forces

   POTIM  = 0.5000    time-step for ionic-motion
   TEIN   =    0.0    initial temperature
   TEBEG  =    0.0;   TEEND  =   0.0 temperature during run
   SMASS  =  -3.00    Nose mass-parameter (am)
   estimated Nose-frequenzy (Omega)   =  0.10E-29 period in steps =****** mass=  -0.162E-27a.u.
   SCALEE = 1.0000    scale energy and forces
   NPACO  =    256;   APACO  = 16.0  distance and # of slots for P.C.
   PSTRESS=    0.0 pullay stress

  Mass of Ions in am
   POMASS =  58.93183.85
  Ionic Valenz
   ZVAL   =   9.00  6.00
  Atomic Wigner-Seitz radii
   RWIGS  =  -1.00 -1.00
  virtual crystal weights 
   VCA    =   1.00  1.00
   NELECT =      15.0000    total number of electrons
   NUPDOWN=      -1.0000    fix difference up-down

 DOS related values:
   EMIN   =  10.00;   EMAX   =-10.00  energy-range for DOS
   EFERMI =   0.00
   ISMEAR =     1;   SIGMA  =   0.20  broadening in eV -4-tet -1-fermi 0-gaus

 Electronic relaxation 2 (details)
   IALGO  =     38    algorithm
   LDIAG  =      T    sub-space diagonalisation (order eigenvalues)
   LSUBROT=      F    optimize rotation matrix (better conditioning)
   TURBO    =      0    0=normal 1=particle mesh
   IRESTART =      0    0=no restart 2=restart with 2 vectors
   NREBOOT  =      0    no. of reboots
   NMIN     =      0    reboot dimension
   EREF     =   0.00    reference energy to select bands
   IMIX   =      4    mixing-type and parameters
     AMIX     =   0.40;   BMIX     =  1.00
     AMIX_MAG =   1.60;   BMIX_MAG =  1.00
     AMIN     =   0.10
     WC   =   100.;   INIMIX=   1;  MIXPRE=   1;  MAXMIX= -45

 Intra band minimization:
   WEIMIN = 0.0000     energy-eigenvalue tresh-hold
   EBREAK =  0.23E-06  absolut break condition
   DEPER  =   0.30     relativ break condition  

   TIME   =   0.40     timestep for ELM

  volume/ion in A,a.u.               =      13.40        90.40
  Fermi-wavevector in a.u.,A,eV,Ry     =   1.349296  2.549800 24.770763  1.820600
  Thomas-Fermi vector in A             =   2.476895
 
 Write flags
   LWAVE        =      T    write WAVECAR
   LDOWNSAMPLE  =      F    k-point downsampling of WAVECAR
   LCHARG       =      T    write CHGCAR
   LVTOT        =      F    write LOCPOT, total local potential
   LVHAR        =      F    write LOCPOT, Hartree potential only
   LELF         =      F    write electronic localiz. function (ELF)
   LORBIT       =      0    0 simple, 1 ext, 2 COOP (PROOUT), +10 PAW based schemes


 Dipole corrections
   LMONO  =      F    monopole corrections only (constant potential shift)
   LDIPOL =      F    correct potential (dipole corrections)
   IDIPOL =      0    1-x, 2-y, 3-z, 4-all directions 
   EPSILON=  1.0000000 bulk dielectric constant

 Exchange correlation treatment:
   GGA     =    PE    GGA type
   LEXCH   =     8    internal setting for exchange type
   VOSKOWN=      0    Vosko Wilk Nusair interpolation
   LHFCALC =     F    Hartree Fock is set to
   LHFONE  =     F    Hartree Fock one center treatment
   AEXX    =    0.0000 exact exchange contribution

 Linear response parameters
   LEPSILON=     F    determine dielectric tensor
   LRPA    =     F    only Hartree local field effects (RPA)
   LNABLA  =     F    use nabla operator in PAW spheres
   LVEL    =     F    velocity operator in full k-point grid
   LINTERFAST=   F  fast interpolation
   KINTER  =     0    interpolate to denser k-point grid
   CSHIFT  =0.1000    complex shift for real part using Kramers Kronig
   OMEGAMAX=  -1.0    maximum frequency
   DEG_THRESHOLD= 0.2000000E-02 threshold for treating states as degnerate
   RTIME   =   -0.100 relaxation time in fs
  (WPLASMAI=    0.000 imaginary part of plasma frequency in eV, 0.658/RTIME)
   DFIELD  = 0.0000000 0.0000000 0.0000000 field for delta impulse in time
 
 Orbital magnetization related:
   ORBITALMAG=     F  switch on orbital magnetization
   LCHIMAG   =     F  perturbation theory with respect to B field
   DQ        =  0.001000  dq finite difference perturbation B field
   LLRAUG    =     F  two centre corrections for induced B field



--------------------------------------------------------------------------------------------------------


 Static calculation
 charge density and potential will be updated during run
 non-spin polarized calculation
 Variant of blocked Davidson
 Davidson routine will perform the subspace rotation
 perform sub-space diagonalisation
    after iterative eigenvector-optimisation
 modified Broyden-mixing scheme, WC =      100.0
 initial mixing is a Kerker type mixing with AMIX =  0.4000 and BMIX =      1.0000
 Hartree-type preconditioning will be used
 using additional bands            3
 reciprocal scheme for non local part
 use partial core corrections
 calculate Harris-corrections to forces 
   (improved forces if not selfconsistent)
 use gradient corrections 
 use of overlap-Matrix (Vanderbilt PP)
 Methfessel and Paxton  Order N= 1 SIGMA  =   0.20


--------------------------------------------------------------------------------------------------------


  energy-cutoff  :      267.97
  volume of cell :       26.79
      direct lattice vectors                 reciprocal lattice vectors
     1.885000000  1.885000000  0.000000000     0.265251989  0.265251989  0.000000000
    -1.885000000  1.885000000  0.000000000    -0.265251989  0.265251989  0.000000000
     0.000000000  0.000000000  3.770000000     0.000000000  0.000000000  0.265251989

  length of vectors
     2.665792565  2.665792565  3.770000000     0.375122961  0.375122961  0.265251989


 
 k-points in units of 2pi/SCALE and weight: Server version 2018.05.22. K-point grid 
   0.00000000  0.00000000  0.00000000       0.000
   0.00000000  0.01894657  0.25051577       0.002
   0.00000000  0.03789314  0.23577955       0.002
   0.00000000  0.05683971  0.22104332       0.002
   0.00000000  0.07578628  0.20630710       0.002
   0.00000000  0.09473285  0.19157088       0.002
   0.00000000  0.11367942  0.17683466       0.002
   0.00000000  0.13262599  0.16209844       0.002
   0.00000000  0.15157257  0.14736222       0.002
   0.00000000  0.17051914  0.13262599       0.001
   0.00000000  0.18946571  0.11788977       0.002
   0.00000000  0.20841228  0.10315355       0.002
   0.00000000  0.22735885  0.08841733       0.002
   0.00000000  0.24630542  0.07368111       0.002
   0.00000000  0.26525199  0.05894489       0.001
   0.00000000  0.28419856  0.04420866       0.002
   0.00000000  0.30314513  0.02947244       0.002
   0.00000000  0.32209170  0.01473622       0.002
   0.00000000  0.34103827  0.00000000       0.001
   0.00000000  0.35998484  0.25051577       0.002
   0.00000000  0.37893141  0.23577955       0.002
   0.00000000  0.39787798  0.22104332       0.002
   0.00000000  0.41682455  0.20630710       0.002
   0.00000000  0.45471770  0.17683466       0.002
   0.00000000  0.47366427  0.16209844       0.002
   0.00000000  0.49261084  0.14736222       0.002
   0.00000000  0.51155741  0.13262599       0.001
   0.00000000  0.00000000  0.11788977       0.001
   0.00000000  0.01894657  0.10315355       0.002
   0.00000000  0.03789314  0.08841733       0.002
   0.00000000  0.05683971  0.07368111       0.002
   0.00000000  0.09473285  0.04420866       0.002
   0.00000000  0.11367942  0.02947244       0.002
   0.00000000  0.13262599  0.01473622       0.002
   0.00000000  0.15157257  0.00000000       0.001
   0.00000000  0.18946571  0.23577955       0.002
   0.00000000  0.20841228  0.22104332       0.002
   0.00000000  0.22735885  0.20630710       0.002
   0.00000000  0.26525199  0.17683466       0.001
   0.00000000  0.28419856  0.16209844       0.002
   0.00000000  0.30314513  0.14736222       0.002
   0.00000000  0.32209170  0.13262599       0.001
   0.00000000  0.35998484  0.10315355       0.002
   0.00000000  0.37893141  0.08841733       0.002
   0.00000000  0.39787798  0.07368111       0.002
   0.00000000  0.45471770  0.02947244       0.002
   0.00000000  0.47366427  0.01473622       0.002
   0.00000000  0.49261084  0.26525199       0.001
   0.00000000  0.00000000  0.23577955       0.001
   0.00000000  0.01894657  0.22104332       0.002
   0.00000000  0.03789314  0.20630710       0.002
   0.00000000  0.09473285  0.16209844       0.002
   0.00000000  0.11367942  0.14736222       0.002
   0.00000000  0.13262599  0.13262599       0.001
   0.00000000  0.18946571  0.08841733       0.002
   0.00000000  0.20841228  0.07368111       0.002
   0.00000000  0.26525199  0.02947244       0.001
   0.00000000  0.28419856  0.01473622       0.002
   0.00000000  0.30314513  0.00000000       0.001
   0.00000000  0.35998484  0.22104332       0.002
   0.00000000  0.37893141  0.20630710       0.002
   0.00000000  0.45471770  0.14736222       0.002
   0.00000000  0.47366427  0.13262599       0.001
   0.00000000  0.00000000  0.08841733       0.001
   0.00000000  0.01894657  0.07368111       0.002
   0.00000000  0.09473285  0.01473622       0.002
   0.00000000  0.11367942  0.26525199       0.001
   0.00000000  0.18946571  0.20630710       0.002
   0.00000000  0.26525199  0.14736222       0.001
   0.00000000  0.28419856  0.13262599       0.001
   0.00000000  0.35998484  0.07368111       0.002
   0.00000000  0.45471770  0.26525199       0.001
   0.00000000  0.00000000  0.20630710       0.001
   0.00000000  0.09473285  0.13262599       0.001
   0.00000000  0.26525199  0.26525199       0.000
   0.01894657  0.51155741  0.00000000       0.001
   0.01894657  0.01894657  0.23577955       0.002
   0.01894657  0.03789314  0.22104332       0.005
   0.01894657  0.05683971  0.20630710       0.005
   0.01894657  0.07578628  0.19157088       0.005
   0.01894657  0.09473285  0.17683466       0.005
   0.01894657  0.11367942  0.16209844       0.005
   0.01894657  0.13262599  0.14736222       0.005
   0.01894657  0.15157257  0.13262599       0.002
   0.01894657  0.17051914  0.11788977       0.005
   0.01894657  0.18946571  0.10315355       0.005
   0.01894657  0.20841228  0.08841733       0.005
   0.01894657  0.22735885  0.07368111       0.005
   0.01894657  0.24630542  0.05894489       0.002
   0.01894657  0.28419856  0.02947244       0.002
   0.01894657  0.30314513  0.01473622       0.005
   0.01894657  0.32209170  0.00000000       0.002
   0.01894657  0.34103827  0.25051577       0.005
   0.01894657  0.35998484  0.23577955       0.005
   0.01894657  0.37893141  0.22104332       0.005
   0.01894657  0.39787798  0.20630710       0.005
   0.01894657  0.41682455  0.19157088       0.005
   0.01894657  0.45471770  0.16209844       0.005
   0.01894657  0.47366427  0.14736222       0.005
   0.01894657  0.49261084  0.13262599       0.002
  -0.24630542  0.24630542  0.11788977       0.002
   0.01894657  0.01894657  0.08841733       0.002
   0.01894657  0.03789314  0.07368111       0.005
   0.01894657  0.07578628  0.04420866       0.005
   0.01894657  0.09473285  0.02947244       0.005
   0.01894657  0.11367942  0.01473622       0.005
   0.01894657  0.13262599  0.00000000       0.002
   0.01894657  0.15157257  0.25051577       0.005
   0.01894657  0.18946571  0.22104332       0.005
   0.01894657  0.20841228  0.20630710       0.005
   0.01894657  0.24630542  0.17683466       0.002
   0.01894657  0.28419856  0.14736222       0.002
   0.01894657  0.30314513  0.13262599       0.002
   0.01894657  0.32209170  0.11788977       0.005
   0.01894657  0.35998484  0.08841733       0.005
   0.01894657  0.37893141  0.07368111       0.005
   0.01894657  0.41682455  0.04420866       0.005
   0.01894657  0.45471770  0.01473622       0.005
   0.01894657  0.47366427  0.26525199       0.002
   0.01894657  0.49261084  0.25051577       0.005
   0.01894657  0.01894657  0.20630710       0.002
   0.01894657  0.05683971  0.17683466       0.005
   0.01894657  0.09473285  0.14736222       0.005
   0.01894657  0.11367942  0.13262599       0.002
   0.01894657  0.15157257  0.10315355       0.005
   0.01894657  0.18946571  0.07368111       0.005
   0.01894657  0.22735885  0.04420866       0.005
   0.01894657  0.28419856  0.00000000       0.001
   0.01894657  0.32209170  0.23577955       0.005
   0.01894657  0.35998484  0.20630710       0.005
   0.01894657  0.39787798  0.17683466       0.005
   0.01894657  0.45471770  0.13262599       0.002
   0.01894657  0.49261084  0.10315355       0.005
   0.01894657  0.05683971  0.02947244       0.005
   0.01894657  0.09473285  0.26525199       0.002
   0.01894657  0.13262599  0.23577955       0.005
   0.01894657  0.22735885  0.16209844       0.005
   0.01894657  0.09473285  0.20630710       0.005
   0.01894657  0.18946571  0.13262599       0.002
   0.01894657  0.35998484  0.26525199       0.002
   0.03789314  0.49261084  0.00000000       0.001
   0.03789314  0.03789314  0.20630710       0.002
   0.03789314  0.05683971  0.19157088       0.005
   0.03789314  0.07578628  0.17683466       0.005
   0.03789314  0.09473285  0.16209844       0.005
   0.03789314  0.11367942  0.14736222       0.005
   0.03789314  0.13262599  0.13262599       0.002
   0.03789314  0.15157257  0.11788977       0.005
   0.03789314  0.17051914  0.10315355       0.005
   0.03789314  0.18946571  0.08841733       0.005
   0.03789314  0.20841228  0.07368111       0.005
   0.03789314  0.22735885  0.05894489       0.002
   0.03789314  0.30314513  0.00000000       0.001
   0.03789314  0.32209170  0.25051577       0.005
   0.03789314  0.34103827  0.23577955       0.005
   0.03789314  0.35998484  0.22104332       0.005
   0.03789314  0.37893141  0.20630710       0.005
   0.03789314  0.39787798  0.19157088       0.005
   0.03789314  0.41682455  0.17683466       0.005
   0.03789314  0.45471770  0.14736222       0.005
   0.03789314  0.47366427  0.13262599       0.002
  -0.22735885  0.22735885  0.11788977       0.002
   0.03789314  0.05683971  0.04420866       0.005
   0.03789314  0.07578628  0.02947244       0.005
   0.03789314  0.09473285  0.01473622       0.005
   0.03789314  0.11367942  0.00000000       0.002
   0.03789314  0.13262599  0.25051577       0.005
   0.03789314  0.15157257  0.23577955       0.005
   0.03789314  0.18946571  0.20630710       0.005
   0.03789314  0.22735885  0.17683466       0.002
   0.03789314  0.30314513  0.11788977       0.002
   0.03789314  0.32209170  0.10315355       0.005
   0.03789314  0.35998484  0.07368111       0.005
   0.03789314  0.39787798  0.04420866       0.005
   0.03789314  0.41682455  0.02947244       0.005
   0.03789314  0.45471770  0.26525199       0.002
   0.03789314  0.47366427  0.25051577       0.005
  -0.22735885  0.22735885  0.23577955       0.002
   0.03789314  0.03789314  0.17683466       0.002
   0.03789314  0.05683971  0.16209844       0.005
   0.03789314  0.09473285  0.13262599       0.002
   0.03789314  0.13262599  0.10315355       0.005
   0.03789314  0.15157257  0.08841733       0.005
   0.03789314  0.20841228  0.04420866       0.005
   0.03789314  0.22735885  0.02947244       0.002
   0.03789314  0.09473285  0.22104332       0.005
   0.03789314  0.11367942  0.20630710       0.005
   0.03789314  0.18946571  0.14736222       0.005
   0.03789314  0.20841228  0.13262599       0.002
   0.03789314  0.35998484  0.01473622       0.005
   0.03789314  0.37893141  0.00000000       0.002
   0.03789314  0.45471770  0.20630710       0.005
   0.03789314  0.09473285  0.07368111       0.005
   0.03789314  0.18946571  0.26525199       0.002
   0.03789314  0.35998484  0.13262599       0.002
   0.05683971  0.47366427  0.00000000       0.001
   0.05683971  0.05683971  0.17683466       0.002
   0.05683971  0.07578628  0.16209844       0.005
   0.05683971  0.09473285  0.14736222       0.005
   0.05683971  0.11367942  0.13262599       0.002
   0.05683971  0.13262599  0.11788977       0.005
   0.05683971  0.15157257  0.10315355       0.005
   0.05683971  0.17051914  0.08841733       0.005
   0.05683971  0.18946571  0.07368111       0.005
   0.05683971  0.20841228  0.05894489       0.002
   0.05683971  0.32209170  0.23577955       0.002
   0.05683971  0.34103827  0.22104332       0.005
   0.05683971  0.35998484  0.20630710       0.005
   0.05683971  0.37893141  0.19157088       0.005
   0.05683971  0.39787798  0.17683466       0.005
   0.05683971  0.41682455  0.16209844       0.005
   0.05683971  0.45471770  0.13262599       0.002
  -0.20841228  0.20841228  0.11788977       0.002
   0.05683971  0.05683971  0.02947244       0.002
   0.05683971  0.07578628  0.01473622       0.005
   0.05683971  0.09473285  0.00000000       0.002
   0.05683971  0.11367942  0.25051577       0.005
   0.05683971  0.13262599  0.23577955       0.005
   0.05683971  0.15157257  0.22104332       0.005
   0.05683971  0.20841228  0.17683466       0.002
   0.05683971  0.09473285  0.23577955       0.005
   0.05683971  0.11367942  0.22104332       0.005
   0.05683971  0.13262599  0.20630710       0.005
   0.05683971  0.18946571  0.16209844       0.005
   0.05683971  0.20841228  0.14736222       0.002
   0.05683971  0.35998484  0.02947244       0.005
   0.05683971  0.37893141  0.01473622       0.005
   0.05683971  0.39787798  0.26525199       0.002
   0.05683971  0.45471770  0.22104332       0.005
  -0.20841228  0.20841228  0.20630710       0.002
   0.05683971  0.09473285  0.08841733       0.005
   0.05683971  0.11367942  0.07368111       0.005
   0.05683971  0.18946571  0.01473622       0.005
   0.05683971  0.20841228  0.26525199       0.001
   0.05683971  0.35998484  0.14736222       0.005
   0.05683971  0.37893141  0.13262599       0.002
   0.05683971  0.45471770  0.07368111       0.005
   0.05683971  0.09473285  0.20630710       0.005
   0.05683971  0.18946571  0.13262599       0.002
   0.05683971  0.35998484  0.00000000       0.002
   0.07578628  0.45471770  0.00000000       0.001
   0.07578628  0.07578628  0.14736222       0.002
   0.07578628  0.09473285  0.13262599       0.002
   0.07578628  0.11367942  0.11788977       0.005
   0.07578628  0.13262599  0.10315355       0.005
   0.07578628  0.15157257  0.08841733       0.005
   0.07578628  0.17051914  0.07368111       0.005
   0.07578628  0.18946571  0.05894489       0.002
   0.07578628  0.09473285  0.25051577       0.005
   0.07578628  0.11367942  0.23577955       0.005
   0.07578628  0.13262599  0.22104332       0.005
   0.07578628  0.15157257  0.20630710       0.005
   0.07578628  0.18946571  0.17683466       0.002
   0.07578628  0.35998484  0.04420866       0.005
   0.07578628  0.37893141  0.02947244       0.005
   0.07578628  0.39787798  0.01473622       0.005
   0.07578628  0.41682455  0.26525199       0.002
  -0.18946571  0.18946571  0.23577955       0.002
   0.07578628  0.09473285  0.10315355       0.005
   0.07578628  0.11367942  0.08841733       0.005
   0.07578628  0.13262599  0.07368111       0.005
   0.07578628  0.18946571  0.02947244       0.002
   0.07578628  0.35998484  0.16209844       0.005
   0.07578628  0.37893141  0.14736222       0.005
   0.07578628  0.39787798  0.13262599       0.002
  -0.18946571  0.18946571  0.08841733       0.002
   0.07578628  0.09473285  0.22104332       0.005
   0.07578628  0.11367942  0.20630710       0.005
   0.07578628  0.18946571  0.14736222       0.002
   0.07578628  0.35998484  0.01473622       0.005
   0.07578628  0.37893141  0.26525199       0.002
  -0.18946571  0.18946571  0.20630710       0.002
   0.07578628  0.09473285  0.07368111       0.005
   0.07578628  0.18946571  0.26525199       0.001
   0.07578628  0.35998484  0.13262599       0.002
   0.09473285  0.43577113  0.00000000       0.001
   0.09473285  0.09473285  0.11788977       0.002
   0.09473285  0.11367942  0.10315355       0.005
   0.09473285  0.13262599  0.08841733       0.005
   0.09473285  0.15157257  0.07368111       0.005
   0.09473285  0.17051914  0.05894489       0.002
   0.09473285  0.35998484  0.17683466       0.002
   0.09473285  0.37893141  0.16209844       0.005
   0.09473285  0.39787798  0.14736222       0.005
   0.09473285  0.41682455  0.13262599       0.002
   0.09473285  0.09473285  0.23577955       0.002
   0.09473285  0.11367942  0.22104332       0.005
   0.09473285  0.13262599  0.20630710       0.005
   0.09473285  0.35998484  0.02947244       0.002
   0.09473285  0.37893141  0.01473622       0.005
   0.09473285  0.39787798  0.26525199       0.002
   0.09473285  0.41682455  0.25051577       0.005
   0.09473285  0.09473285  0.08841733       0.002
   0.09473285  0.11367942  0.07368111       0.005
   0.09473285  0.15157257  0.04420866       0.005
   0.09473285  0.35998484  0.14736222       0.002
   0.09473285  0.37893141  0.13262599       0.002
   0.09473285  0.09473285  0.20630710       0.002
   0.09473285  0.35998484  0.26525199       0.001
   0.09473285  0.39787798  0.23577955       0.005
   0.11367942  0.41682455  0.00000000       0.001
   0.11367942  0.11367942  0.08841733       0.002
   0.11367942  0.13262599  0.07368111       0.005
   0.11367942  0.15157257  0.05894489       0.002
   0.11367942  0.37893141  0.14736222       0.002
   0.11367942  0.39787798  0.13262599       0.002
  -0.15157257  0.15157257  0.11788977       0.002
   0.11367942  0.11367942  0.20630710       0.002
   0.11367942  0.15157257  0.17683466       0.002
   0.11367942  0.37893141  0.26525199       0.001
   0.11367942  0.39787798  0.25051577       0.005
  -0.15157257  0.15157257  0.23577955       0.002
   0.11367942  0.13262599  0.04420866       0.005
   0.11367942  0.15157257  0.02947244       0.002
   0.11367942  0.39787798  0.10315355       0.005
   0.13262599  0.39787798  0.00000000       0.001
   0.13262599  0.13262599  0.05894489       0.001
  -0.13262599  0.13262599  0.11788977       0.001
   0.13262599  0.13262599  0.17683466       0.001
  -0.13262599  0.13262599  0.23577955       0.001
 
 k-points in reciprocal lattice and weights: Server version 2018.05.22. K-point grid 
   0.00000000  0.00000000  0.00000000       0.000
   0.03571429  0.03571429  0.94444444       0.002
   0.07142857  0.07142857  0.88888889       0.002
   0.10714286  0.10714286  0.83333333       0.002
   0.14285714  0.14285714  0.77777778       0.002
   0.17857143  0.17857143  0.72222222       0.002
   0.21428571  0.21428571  0.66666667       0.002
   0.25000000  0.25000000  0.61111111       0.002
   0.28571429  0.28571429  0.55555556       0.002
   0.32142857  0.32142857  0.50000000       0.001
   0.35714286  0.35714286  0.44444444       0.002
   0.39285714  0.39285714  0.38888889       0.002
   0.42857143  0.42857143  0.33333333       0.002
   0.46428571  0.46428571  0.27777778       0.002
   0.50000000  0.50000000  0.22222222       0.001
   0.53571429  0.53571429  0.16666667       0.002
   0.57142857  0.57142857  0.11111111       0.002
   0.60714286  0.60714286  0.05555556       0.002
   0.64285714  0.64285714  0.00000000       0.001
   0.67857143  0.67857143  0.94444444       0.002
   0.71428571  0.71428571  0.88888889       0.002
   0.75000000  0.75000000  0.83333333       0.002
   0.78571429  0.78571429  0.77777778       0.002
   0.85714286  0.85714286  0.66666667       0.002
   0.89285714  0.89285714  0.61111111       0.002
   0.92857143  0.92857143  0.55555556       0.002
   0.96428571  0.96428571  0.50000000       0.001
   0.00000000  0.00000000  0.44444444       0.001
   0.03571429  0.03571429  0.38888889       0.002
   0.07142857  0.07142857  0.33333333       0.002
   0.10714286  0.10714286  0.27777778       0.002
   0.17857143  0.17857143  0.16666667       0.002
   0.21428571  0.21428571  0.11111111       0.002
   0.25000000  0.25000000  0.05555556       0.002
   0.28571429  0.28571429  0.00000000       0.001
   0.35714286  0.35714286  0.88888889       0.002
   0.39285714  0.39285714  0.83333333       0.002
   0.42857143  0.42857143  0.77777778       0.002
   0.50000000  0.50000000  0.66666667       0.001
   0.53571429  0.53571429  0.61111111       0.002
   0.57142857  0.57142857  0.55555556       0.002
   0.60714286  0.60714286  0.50000000       0.001
   0.67857143  0.67857143  0.38888889       0.002
   0.71428571  0.71428571  0.33333333       0.002
   0.75000000  0.75000000  0.27777778       0.002
   0.85714286  0.85714286  0.11111111       0.002
   0.89285714  0.89285714  0.05555556       0.002
   0.92857143  0.92857143  1.00000000       0.001
   0.00000000  0.00000000  0.88888889       0.001
   0.03571429  0.03571429  0.83333333       0.002
   0.07142857  0.07142857  0.77777778       0.002
   0.17857143  0.17857143  0.61111111       0.002
   0.21428571  0.21428571  0.55555556       0.002
   0.25000000  0.25000000  0.50000000       0.001
   0.35714286  0.35714286  0.33333333       0.002
   0.39285714  0.39285714  0.27777778       0.002
   0.50000000  0.50000000  0.11111111       0.001
   0.53571429  0.53571429  0.05555556       0.002
   0.57142857  0.57142857  0.00000000       0.001
   0.67857143  0.67857143  0.83333333       0.002
   0.71428571  0.71428571  0.77777778       0.002
   0.85714286  0.85714286  0.55555556       0.002
   0.89285714  0.89285714  0.50000000       0.001
   0.00000000  0.00000000  0.33333333       0.001
   0.03571429  0.03571429  0.27777778       0.002
   0.17857143  0.17857143  0.05555556       0.002
   0.21428571  0.21428571  1.00000000       0.001
   0.35714286  0.35714286  0.77777778       0.002
   0.50000000  0.50000000  0.55555556       0.001
   0.53571429  0.53571429  0.50000000       0.001
   0.67857143  0.67857143  0.27777778       0.002
   0.85714286  0.85714286  1.00000000       0.001
   0.00000000  0.00000000  0.77777778       0.001
   0.17857143  0.17857143  0.50000000       0.001
   0.50000000  0.50000000  1.00000000       0.000
   1.00000000  0.92857143  0.00000000       0.001
   0.07142857  0.00000000  0.88888889       0.002
   0.10714286  0.03571429  0.83333333       0.005
   0.14285714  0.07142857  0.77777778       0.005
   0.17857143  0.10714286  0.72222222       0.005
   0.21428571  0.14285714  0.66666667       0.005
   0.25000000  0.17857143  0.61111111       0.005
   0.28571429  0.21428571  0.55555556       0.005
   0.32142857  0.25000000  0.50000000       0.002
   0.35714286  0.28571429  0.44444444       0.005
   0.39285714  0.32142857  0.38888889       0.005
   0.42857143  0.35714286  0.33333333       0.005
   0.46428571  0.39285714  0.27777778       0.005
   0.50000000  0.42857143  0.22222222       0.002
   0.57142857  0.50000000  0.11111111       0.002
   0.60714286  0.53571429  0.05555556       0.005
   0.64285714  0.57142857  0.00000000       0.002
   0.67857143  0.60714286  0.94444444       0.005
   0.71428571  0.64285714  0.88888889       0.005
   0.75000000  0.67857143  0.83333333       0.005
   0.78571429  0.71428571  0.77777778       0.005
   0.82142857  0.75000000  0.72222222       0.005
   0.89285714  0.82142857  0.61111111       0.005
   0.92857143  0.85714286  0.55555556       0.005
   0.96428571  0.89285714  0.50000000       0.002
   0.00000000  0.92857143  0.44444444       0.002
   0.07142857  0.00000000  0.33333333       0.002
   0.10714286  0.03571429  0.27777778       0.005
   0.17857143  0.10714286  0.16666667       0.005
   0.21428571  0.14285714  0.11111111       0.005
   0.25000000  0.17857143  0.05555556       0.005
   0.28571429  0.21428571  0.00000000       0.002
   0.32142857  0.25000000  0.94444444       0.005
   0.39285714  0.32142857  0.83333333       0.005
   0.42857143  0.35714286  0.77777778       0.005
   0.50000000  0.42857143  0.66666667       0.002
   0.57142857  0.50000000  0.55555556       0.002
   0.60714286  0.53571429  0.50000000       0.002
   0.64285714  0.57142857  0.44444444       0.005
   0.71428571  0.64285714  0.33333333       0.005
   0.75000000  0.67857143  0.27777778       0.005
   0.82142857  0.75000000  0.16666667       0.005
   0.89285714  0.82142857  0.05555556       0.005
   0.92857143  0.85714286  1.00000000       0.002
   0.96428571  0.89285714  0.94444444       0.005
   0.07142857  0.00000000  0.77777778       0.002
   0.14285714  0.07142857  0.66666667       0.005
   0.21428571  0.14285714  0.55555556       0.005
   0.25000000  0.17857143  0.50000000       0.002
   0.32142857  0.25000000  0.38888889       0.005
   0.39285714  0.32142857  0.27777778       0.005
   0.46428571  0.39285714  0.16666667       0.005
   0.57142857  0.50000000  0.00000000       0.001
   0.64285714  0.57142857  0.88888889       0.005
   0.71428571  0.64285714  0.77777778       0.005
   0.78571429  0.71428571  0.66666667       0.005
   0.89285714  0.82142857  0.50000000       0.002
   0.96428571  0.89285714  0.38888889       0.005
   0.14285714  0.07142857  0.11111111       0.005
   0.21428571  0.14285714  1.00000000       0.002
   0.28571429  0.21428571  0.88888889       0.005
   0.46428571  0.39285714  0.61111111       0.005
   0.21428571  0.14285714  0.77777778       0.005
   0.39285714  0.32142857  0.50000000       0.002
   0.71428571  0.64285714  1.00000000       0.002
   1.00000000  0.85714286  0.00000000       0.001
   0.14285714  0.00000000  0.77777778       0.002
   0.17857143  0.03571429  0.72222222       0.005
   0.21428571  0.07142857  0.66666667       0.005
   0.25000000  0.10714286  0.61111111       0.005
   0.28571429  0.14285714  0.55555556       0.005
   0.32142857  0.17857143  0.50000000       0.002
   0.35714286  0.21428571  0.44444444       0.005
   0.39285714  0.25000000  0.38888889       0.005
   0.42857143  0.28571429  0.33333333       0.005
   0.46428571  0.32142857  0.27777778       0.005
   0.50000000  0.35714286  0.22222222       0.002
   0.64285714  0.50000000  0.00000000       0.001
   0.67857143  0.53571429  0.94444444       0.005
   0.71428571  0.57142857  0.88888889       0.005
   0.75000000  0.60714286  0.83333333       0.005
   0.78571429  0.64285714  0.77777778       0.005
   0.82142857  0.67857143  0.72222222       0.005
   0.85714286  0.71428571  0.66666667       0.005
   0.92857143  0.78571429  0.55555556       0.005
   0.96428571  0.82142857  0.50000000       0.002
   0.00000000  0.85714286  0.44444444       0.002
   0.17857143  0.03571429  0.16666667       0.005
   0.21428571  0.07142857  0.11111111       0.005
   0.25000000  0.10714286  0.05555556       0.005
   0.28571429  0.14285714  0.00000000       0.002
   0.32142857  0.17857143  0.94444444       0.005
   0.35714286  0.21428571  0.88888889       0.005
   0.42857143  0.28571429  0.77777778       0.005
   0.50000000  0.35714286  0.66666667       0.002
   0.64285714  0.50000000  0.44444444       0.002
   0.67857143  0.53571429  0.38888889       0.005
   0.75000000  0.60714286  0.27777778       0.005
   0.82142857  0.67857143  0.16666667       0.005
   0.85714286  0.71428571  0.11111111       0.005
   0.92857143  0.78571429  1.00000000       0.002
   0.96428571  0.82142857  0.94444444       0.005
   0.00000000  0.85714286  0.88888889       0.002
   0.14285714  0.00000000  0.66666667       0.002
   0.17857143  0.03571429  0.61111111       0.005
   0.25000000  0.10714286  0.50000000       0.002
   0.32142857  0.17857143  0.38888889       0.005
   0.35714286  0.21428571  0.33333333       0.005
   0.46428571  0.32142857  0.16666667       0.005
   0.50000000  0.35714286  0.11111111       0.002
   0.25000000  0.10714286  0.83333333       0.005
   0.28571429  0.14285714  0.77777778       0.005
   0.42857143  0.28571429  0.55555556       0.005
   0.46428571  0.32142857  0.50000000       0.002
   0.75000000  0.60714286  0.05555556       0.005
   0.78571429  0.64285714  0.00000000       0.002
   0.92857143  0.78571429  0.77777778       0.005
   0.25000000  0.10714286  0.27777778       0.005
   0.42857143  0.28571429  1.00000000       0.002
   0.75000000  0.60714286  0.50000000       0.002
   1.00000000  0.78571429  0.00000000       0.001
   0.21428571  0.00000000  0.66666667       0.002
   0.25000000  0.03571429  0.61111111       0.005
   0.28571429  0.07142857  0.55555556       0.005
   0.32142857  0.10714286  0.50000000       0.002
   0.35714286  0.14285714  0.44444444       0.005
   0.39285714  0.17857143  0.38888889       0.005
   0.42857143  0.21428571  0.33333333       0.005
   0.46428571  0.25000000  0.27777778       0.005
   0.50000000  0.28571429  0.22222222       0.002
   0.71428571  0.50000000  0.88888889       0.002
   0.75000000  0.53571429  0.83333333       0.005
   0.78571429  0.57142857  0.77777778       0.005
   0.82142857  0.60714286  0.72222222       0.005
   0.85714286  0.64285714  0.66666667       0.005
   0.89285714  0.67857143  0.61111111       0.005
   0.96428571  0.75000000  0.50000000       0.002
   0.00000000  0.78571429  0.44444444       0.002
   0.21428571  0.00000000  0.11111111       0.002
   0.25000000  0.03571429  0.05555556       0.005
   0.28571429  0.07142857  0.00000000       0.002
   0.32142857  0.10714286  0.94444444       0.005
   0.35714286  0.14285714  0.88888889       0.005
   0.39285714  0.17857143  0.83333333       0.005
   0.50000000  0.28571429  0.66666667       0.002
   0.28571429  0.07142857  0.88888889       0.005
   0.32142857  0.10714286  0.83333333       0.005
   0.35714286  0.14285714  0.77777778       0.005
   0.46428571  0.25000000  0.61111111       0.005
   0.50000000  0.28571429  0.55555556       0.002
   0.78571429  0.57142857  0.11111111       0.005
   0.82142857  0.60714286  0.05555556       0.005
   0.85714286  0.64285714  1.00000000       0.002
   0.96428571  0.75000000  0.83333333       0.005
   0.00000000  0.78571429  0.77777778       0.002
   0.28571429  0.07142857  0.33333333       0.005
   0.32142857  0.10714286  0.27777778       0.005
   0.46428571  0.25000000  0.05555556       0.005
   0.50000000  0.28571429  1.00000000       0.001
   0.78571429  0.57142857  0.55555556       0.005
   0.82142857  0.60714286  0.50000000       0.002
   0.96428571  0.75000000  0.27777778       0.005
   0.28571429  0.07142857  0.77777778       0.005
   0.46428571  0.25000000  0.50000000       0.002
   0.78571429  0.57142857  0.00000000       0.002
   1.00000000  0.71428571  0.00000000       0.001
   0.28571429  0.00000000  0.55555556       0.002
   0.32142857  0.03571429  0.50000000       0.002
   0.35714286  0.07142857  0.44444444       0.005
   0.39285714  0.10714286  0.38888889       0.005
   0.42857143  0.14285714  0.33333333       0.005
   0.46428571  0.17857143  0.27777778       0.005
   0.50000000  0.21428571  0.22222222       0.002
   0.32142857  0.03571429  0.94444444       0.005
   0.35714286  0.07142857  0.88888889       0.005
   0.39285714  0.10714286  0.83333333       0.005
   0.42857143  0.14285714  0.77777778       0.005
   0.50000000  0.21428571  0.66666667       0.002
   0.82142857  0.53571429  0.16666667       0.005
   0.85714286  0.57142857  0.11111111       0.005
   0.89285714  0.60714286  0.05555556       0.005
   0.92857143  0.64285714  1.00000000       0.002
   0.00000000  0.71428571  0.88888889       0.002
   0.32142857  0.03571429  0.38888889       0.005
   0.35714286  0.07142857  0.33333333       0.005
   0.39285714  0.10714286  0.27777778       0.005
   0.50000000  0.21428571  0.11111111       0.002
   0.82142857  0.53571429  0.61111111       0.005
   0.85714286  0.57142857  0.55555556       0.005
   0.89285714  0.60714286  0.50000000       0.002
   0.00000000  0.71428571  0.33333333       0.002
   0.32142857  0.03571429  0.83333333       0.005
   0.35714286  0.07142857  0.77777778       0.005
   0.50000000  0.21428571  0.55555556       0.002
   0.82142857  0.53571429  0.05555556       0.005
   0.85714286  0.57142857  1.00000000       0.002
   0.00000000  0.71428571  0.77777778       0.002
   0.32142857  0.03571429  0.27777778       0.005
   0.50000000  0.21428571  1.00000000       0.001
   0.82142857  0.53571429  0.50000000       0.002
   1.00000000  0.64285714  0.00000000       0.001
   0.35714286  0.00000000  0.44444444       0.002
   0.39285714  0.03571429  0.38888889       0.005
   0.42857143  0.07142857  0.33333333       0.005
   0.46428571  0.10714286  0.27777778       0.005
   0.50000000  0.14285714  0.22222222       0.002
   0.85714286  0.50000000  0.66666667       0.002
   0.89285714  0.53571429  0.61111111       0.005
   0.92857143  0.57142857  0.55555556       0.005
   0.96428571  0.60714286  0.50000000       0.002
   0.35714286  0.00000000  0.88888889       0.002
   0.39285714  0.03571429  0.83333333       0.005
   0.42857143  0.07142857  0.77777778       0.005
   0.85714286  0.50000000  0.11111111       0.002
   0.89285714  0.53571429  0.05555556       0.005
   0.92857143  0.57142857  1.00000000       0.002
   0.96428571  0.60714286  0.94444444       0.005
   0.35714286  0.00000000  0.33333333       0.002
   0.39285714  0.03571429  0.27777778       0.005
   0.46428571  0.10714286  0.16666667       0.005
   0.85714286  0.50000000  0.55555556       0.002
   0.89285714  0.53571429  0.50000000       0.002
   0.35714286  0.00000000  0.77777778       0.002
   0.85714286  0.50000000  1.00000000       0.001
   0.92857143  0.57142857  0.88888889       0.005
   1.00000000  0.57142857  0.00000000       0.001
   0.42857143  0.00000000  0.33333333       0.002
   0.46428571  0.03571429  0.27777778       0.005
   0.50000000  0.07142857  0.22222222       0.002
   0.92857143  0.50000000  0.55555556       0.002
   0.96428571  0.53571429  0.50000000       0.002
   0.00000000  0.57142857  0.44444444       0.002
   0.42857143  0.00000000  0.77777778       0.002
   0.50000000  0.07142857  0.66666667       0.002
   0.92857143  0.50000000  1.00000000       0.001
   0.96428571  0.53571429  0.94444444       0.005
   0.00000000  0.57142857  0.88888889       0.002
   0.46428571  0.03571429  0.16666667       0.005
   0.50000000  0.07142857  0.11111111       0.002
   0.96428571  0.53571429  0.38888889       0.005
   1.00000000  0.50000000  0.00000000       0.001
   0.50000000  0.00000000  0.22222222       0.001
   0.00000000  0.50000000  0.44444444       0.001
   0.50000000  0.00000000  0.66666667       0.001
   0.00000000  0.50000000  0.88888889       0.001
 
 position of ions in fractional coordinates (direct lattice) 
   0.00000000  0.00000000  0.00000000
   0.50000000  0.50000000  0.50000000
 
 position of ions in cartesian coordinates  (Angst):
   0.00000000  0.00000000  0.00000000
   0.00000000  1.88500000  1.88500000
 


--------------------------------------------------------------------------------------------------------


 k-point  1 :   0.0000 0.0000 0.0000  plane waves:     263
 k-point  2 :   0.0357 0.0357 0.9444  plane waves:     263
 k-point  3 :   0.0714 0.0714 0.8889  plane waves:     260
 k-point  4 :   0.1071 0.1071 0.8333  plane waves:     268
 k-point  5 :   0.1429 0.1429 0.7778  plane waves:     266
 k-point  6 :   0.1786 0.1786 0.7222  plane waves:     269
 k-point  7 :   0.2143 0.2143 0.6667  plane waves:     269
 k-point  8 :   0.2500 0.2500 0.6111  plane waves:     268
 k-point  9 :   0.2857 0.2857 0.5556  plane waves:     268
 k-point 10 :   0.3214 0.3214 0.5000  plane waves:     264
 k-point 11 :   0.3571 0.3571 0.4444  plane waves:     262
 k-point 12 :   0.3929 0.3929 0.3889  plane waves:     261
 k-point 13 :   0.4286 0.4286 0.3333  plane waves:     260
 k-point 14 :   0.4643 0.4643 0.2778  plane waves:     260
 k-point 15 :   0.5000 0.5000 0.2222  plane waves:     260
 k-point 16 :   0.5357 0.5357 0.1667  plane waves:     258
 k-point 17 :   0.5714 0.5714 0.1111  plane waves:     260
 k-point 18 :   0.6071 0.6071 0.0556  plane waves:     260
 k-point 19 :   0.6429 0.6429 0.0000  plane waves:     259
 k-point 20 :   0.6786 0.6786 0.9444  plane waves:     260
 k-point 21 :   0.7143 0.7143 0.8889  plane waves:     263
 k-point 22 :   0.7500 0.7500 0.8333  plane waves:     268
 k-point 23 :   0.7857 0.7857 0.7778  plane waves:     269
 k-point 24 :   0.8571 0.8571 0.6667  plane waves:     273
 k-point 25 :   0.8929 0.8929 0.6111  plane waves:     273
 k-point 26 :   0.9286 0.9286 0.5556  plane waves:     269
 k-point 27 :   0.9643 0.9643 0.5000  plane waves:     266
 k-point 28 :   0.0000 0.0000 0.4444  plane waves:     266
 k-point 29 :   0.0357 0.0357 0.3889  plane waves:     267
 k-point 30 :   0.0714 0.0714 0.3333  plane waves:     269
 k-point 31 :   0.1071 0.1071 0.2778  plane waves:     269
 k-point 32 :   0.1786 0.1786 0.1667  plane waves:     266
 k-point 33 :   0.2143 0.2143 0.1111  plane waves:     268
 k-point 34 :   0.2500 0.2500 0.0556  plane waves:     264
 k-point 35 :   0.2857 0.2857 0.0000  plane waves:     263
 k-point 36 :   0.3571 0.3571 0.8889  plane waves:     262
 k-point 37 :   0.3929 0.3929 0.8333  plane waves:     262
 k-point 38 :   0.4286 0.4286 0.7778  plane waves:     259
 k-point 39 :   0.5000 0.5000 0.6667  plane waves:     260
 k-point 40 :   0.5357 0.5357 0.6111  plane waves:     260
 k-point 41 :   0.5714 0.5714 0.5556  plane waves:     260
 k-point 42 :   0.6071 0.6071 0.5000  plane waves:     264
 k-point 43 :   0.6786 0.6786 0.3889  plane waves:     264
 k-point 44 :   0.7143 0.7143 0.3333  plane waves:     268
 k-point 45 :   0.7500 0.7500 0.2778  plane waves:     266
 k-point 46 :   0.8571 0.8571 0.1111  plane waves:     264
 k-point 47 :   0.8929 0.8929 0.0556  plane waves:     264
 k-point 48 :   0.9286 0.9286 1.0000  plane waves:     267
 k-point 49 :   0.0000 0.0000 0.8889  plane waves:     266
 k-point 50 :   0.0357 0.0357 0.8333  plane waves:     268
 k-point 51 :   0.0714 0.0714 0.7778  plane waves:     271
 k-point 52 :   0.1786 0.1786 0.6111  plane waves:     271
 k-point 53 :   0.2143 0.2143 0.5556  plane waves:     269
 k-point 54 :   0.2500 0.2500 0.5000  plane waves:     268
 k-point 55 :   0.3571 0.3571 0.3333  plane waves:     262
 k-point 56 :   0.3929 0.3929 0.2778  plane waves:     261
 k-point 57 :   0.5000 0.5000 0.1111  plane waves:     252
 k-point 58 :   0.5357 0.5357 0.0556  plane waves:     248
 k-point 59 :   0.5714 0.5714 0.0000  plane waves:     259
 k-point 60 :   0.6786 0.6786 0.8333  plane waves:     264
 k-point 61 :   0.7143 0.7143 0.7778  plane waves:     266
 k-point 62 :   0.8571 0.8571 0.5556  plane waves:     273
 k-point 63 :   0.8929 0.8929 0.5000  plane waves:     270
 k-point 64 :   0.0000 0.0000 0.3333  plane waves:     262
 k-point 65 :   0.0357 0.0357 0.2778  plane waves:     264
 k-point 66 :   0.1786 0.1786 0.0556  plane waves:     262
 k-point 67 :   0.2143 0.2143 1.0000  plane waves:     263
 k-point 68 :   0.3571 0.3571 0.7778  plane waves:     264
 k-point 69 :   0.5000 0.5000 0.5556  plane waves:     272
 k-point 70 :   0.5357 0.5357 0.5000  plane waves:     262
 k-point 71 :   0.6786 0.6786 0.2778  plane waves:     269
 k-point 72 :   0.8571 0.8571 1.0000  plane waves:     267
 k-point 73 :   0.0000 0.0000 0.7778  plane waves:     266
 k-point 74 :   0.1786 0.1786 0.5000  plane waves:     276
 k-point 75 :   0.5000 0.5000 1.0000  plane waves:     252
 k-point 76 :   1.0000 0.9286 0.0000  plane waves:     261
 k-point 77 :   0.0714 0.0000 0.8889  plane waves:     263
 k-point 78 :   0.1071 0.0357 0.8333  plane waves:     266
 k-point 79 :   0.1429 0.0714 0.7778  plane waves:     270
 k-point 80 :   0.1786 0.1071 0.7222  plane waves:     270
 k-point 81 :   0.2143 0.1429 0.6667  plane waves:     273
 k-point 82 :   0.2500 0.1786 0.6111  plane waves:     271
 k-point 83 :   0.2857 0.2143 0.5556  plane waves:     271
 k-point 84 :   0.3214 0.2500 0.5000  plane waves:     266
 k-point 85 :   0.3571 0.2857 0.4444  plane waves:     264
 k-point 86 :   0.3929 0.3214 0.3889  plane waves:     263
 k-point 87 :   0.4286 0.3571 0.3333  plane waves:     261
 k-point 88 :   0.4643 0.3929 0.2778  plane waves:     261
 k-point 89 :   0.5000 0.4286 0.2222  plane waves:     258
 k-point 90 :   0.5714 0.5000 0.1111  plane waves:     258
 k-point 91 :   0.6071 0.5357 0.0556  plane waves:     257
 k-point 92 :   0.6429 0.5714 0.0000  plane waves:     256
 k-point 93 :   0.6786 0.6071 0.9444  plane waves:     261
 k-point 94 :   0.7143 0.6429 0.8889  plane waves:     263
 k-point 95 :   0.7500 0.6786 0.8333  plane waves:     264
 k-point 96 :   0.7857 0.7143 0.7778  plane waves:     270
 k-point 97 :   0.8214 0.7500 0.7222  plane waves:     270
 k-point 98 :   0.8929 0.8214 0.6111  plane waves:     277
 k-point 99 :   0.9286 0.8571 0.5556  plane waves:     274
 k-point ** :   0.9643 0.8929 0.5000  plane waves:     274
 k-point ** :   0.0000 0.9286 0.4444  plane waves:     267
 k-point ** :   0.0714 0.0000 0.3333  plane waves:     267
 k-point ** :   0.1071 0.0357 0.2778  plane waves:     270
 k-point ** :   0.1786 0.1071 0.1667  plane waves:     266
 k-point ** :   0.2143 0.1429 0.1111  plane waves:     267
 k-point ** :   0.2500 0.1786 0.0556  plane waves:     264
 k-point ** :   0.2857 0.2143 0.0000  plane waves:     264
 k-point ** :   0.3214 0.2500 0.9444  plane waves:     264
 k-point ** :   0.3929 0.3214 0.8333  plane waves:     264
 k-point ** :   0.4286 0.3571 0.7778  plane waves:     261
 k-point ** :   0.5000 0.4286 0.6667  plane waves:     262
 k-point ** :   0.5714 0.5000 0.5556  plane waves:     260
 k-point ** :   0.6071 0.5357 0.5000  plane waves:     262
 k-point ** :   0.6429 0.5714 0.4444  plane waves:     262
 k-point ** :   0.7143 0.6429 0.3333  plane waves:     263
 k-point ** :   0.7500 0.6786 0.2778  plane waves:     268
 k-point ** :   0.8214 0.7500 0.1667  plane waves:     271
 k-point ** :   0.8929 0.8214 0.0556  plane waves:     264
 k-point ** :   0.9286 0.8571 1.0000  plane waves:     266
 k-point ** :   0.9643 0.8929 0.9444  plane waves:     262
 k-point ** :   0.0714 0.0000 0.7778  plane waves:     268
 k-point ** :   0.1429 0.0714 0.6667  plane waves:     271
 k-point ** :   0.2143 0.1429 0.5556  plane waves:     276
 k-point ** :   0.2500 0.1786 0.5000  plane waves:     274
 k-point ** :   0.3214 0.2500 0.3889  plane waves:     267
 k-point ** :   0.3929 0.3214 0.2778  plane waves:     261
 k-point ** :   0.4643 0.3929 0.1667  plane waves:     258
 k-point ** :   0.5714 0.5000 0.0000  plane waves:     256
 k-point ** :   0.6429 0.5714 0.8889  plane waves:     261
 k-point ** :   0.7143 0.6429 0.7778  plane waves:     264
 k-point ** :   0.7857 0.7143 0.6667  plane waves:     270
 k-point ** :   0.8929 0.8214 0.5000  plane waves:     272
 k-point ** :   0.9643 0.8929 0.3889  plane waves:     271
 k-point ** :   0.1429 0.0714 0.1111  plane waves:     266
 k-point ** :   0.2143 0.1429 1.0000  plane waves:     266
 k-point ** :   0.2857 0.2143 0.8889  plane waves:     267
 k-point ** :   0.4643 0.3929 0.6111  plane waves:     260
 k-point ** :   0.2143 0.1429 0.7778  plane waves:     268
 k-point ** :   0.3929 0.3214 0.5000  plane waves:     262
 k-point ** :   0.7143 0.6429 1.0000  plane waves:     259
 k-point ** :   1.0000 0.8571 0.0000  plane waves:     263
 k-point ** :   0.1429 0.0000 0.7778  plane waves:     269
 k-point ** :   0.1786 0.0357 0.7222  plane waves:     273
 k-point ** :   0.2143 0.0714 0.6667  plane waves:     273
 k-point ** :   0.2500 0.1071 0.6111  plane waves:     273
 k-point ** :   0.2857 0.1429 0.5556  plane waves:     269
 k-point ** :   0.3214 0.1786 0.5000  plane waves:     268
 k-point ** :   0.3571 0.2143 0.4444  plane waves:     265
 k-point ** :   0.3929 0.2500 0.3889  plane waves:     263
 k-point ** :   0.4286 0.2857 0.3333  plane waves:     262
 k-point ** :   0.4643 0.3214 0.2778  plane waves:     261
 k-point ** :   0.5000 0.3571 0.2222  plane waves:     258
 k-point ** :   0.6429 0.5000 0.0000  plane waves:     258
 k-point ** :   0.6786 0.5357 0.9444  plane waves:     261
 k-point ** :   0.7143 0.5714 0.8889  plane waves:     264
 k-point ** :   0.7500 0.6071 0.8333  plane waves:     267
 k-point ** :   0.7857 0.6429 0.7778  plane waves:     268
 k-point ** :   0.8214 0.6786 0.7222  plane waves:     269
 k-point ** :   0.8571 0.7143 0.6667  plane waves:     270
 k-point ** :   0.9286 0.7857 0.5556  plane waves:     273
 k-point ** :   0.9643 0.8214 0.5000  plane waves:     278
 k-point ** :   0.0000 0.8571 0.4444  plane waves:     274
 k-point ** :   0.1786 0.0357 0.1667  plane waves:     268
 k-point ** :   0.2143 0.0714 0.1111  plane waves:     267
 k-point ** :   0.2500 0.1071 0.0556  plane waves:     265
 k-point ** :   0.2857 0.1429 0.0000  plane waves:     266
 k-point ** :   0.3214 0.1786 0.9444  plane waves:     266
 k-point ** :   0.3571 0.2143 0.8889  plane waves:     267
 k-point ** :   0.4286 0.2857 0.7778  plane waves:     263
 k-point ** :   0.5000 0.3571 0.6667  plane waves:     260
 k-point ** :   0.6429 0.5000 0.4444  plane waves:     262
 k-point ** :   0.6786 0.5357 0.3889  plane waves:     262
 k-point ** :   0.7500 0.6071 0.2778  plane waves:     266
 k-point ** :   0.8214 0.6786 0.1667  plane waves:     270
 k-point ** :   0.8571 0.7143 0.1111  plane waves:     267
 k-point ** :   0.9286 0.7857 1.0000  plane waves:     269
 k-point ** :   0.9643 0.8214 0.9444  plane waves:     268
 k-point ** :   0.0000 0.8571 0.8889  plane waves:     264
 k-point ** :   0.1429 0.0000 0.6667  plane waves:     273
 k-point ** :   0.1786 0.0357 0.6111  plane waves:     274
 k-point ** :   0.2500 0.1071 0.5000  plane waves:     274
 k-point ** :   0.3214 0.1786 0.3889  plane waves:     269
 k-point ** :   0.3571 0.2143 0.3333  plane waves:     264
 k-point ** :   0.4643 0.3214 0.1667  plane waves:     262
 k-point ** :   0.5000 0.3571 0.1111  plane waves:     262
 k-point ** :   0.2500 0.1071 0.8333  plane waves:     270
 k-point ** :   0.2857 0.1429 0.7778  plane waves:     271
 k-point ** :   0.4286 0.2857 0.5556  plane waves:     262
 k-point ** :   0.4643 0.3214 0.5000  plane waves:     268
 k-point ** :   0.7500 0.6071 0.0556  plane waves:     264
 k-point ** :   0.7857 0.6429 0.0000  plane waves:     263
 k-point ** :   0.9286 0.7857 0.7778  plane waves:     269
 k-point ** :   0.2500 0.1071 0.2778  plane waves:     270
 k-point ** :   0.4286 0.2857 1.0000  plane waves:     258
 k-point ** :   0.7500 0.6071 0.5000  plane waves:     264
 k-point ** :   1.0000 0.7857 0.0000  plane waves:     271
 k-point ** :   0.2143 0.0000 0.6667  plane waves:     277
 k-point ** :   0.2500 0.0357 0.6111  plane waves:     274
 k-point ** :   0.2857 0.0714 0.5556  plane waves:     272
 k-point ** :   0.3214 0.1071 0.5000  plane waves:     270
 k-point ** :   0.3571 0.1429 0.4444  plane waves:     266
 k-point ** :   0.3929 0.1786 0.3889  plane waves:     265
 k-point ** :   0.4286 0.2143 0.3333  plane waves:     264
 k-point ** :   0.4643 0.2500 0.2778  plane waves:     264
 k-point ** :   0.5000 0.2857 0.2222  plane waves:     262
 k-point ** :   0.7143 0.5000 0.8889  plane waves:     258
 k-point ** :   0.7500 0.5357 0.8333  plane waves:     265
 k-point ** :   0.7857 0.5714 0.7778  plane waves:     266
 k-point ** :   0.8214 0.6071 0.7222  plane waves:     264
 k-point ** :   0.8571 0.6429 0.6667  plane waves:     268
 k-point ** :   0.8929 0.6786 0.6111  plane waves:     272
 k-point ** :   0.9643 0.7500 0.5000  plane waves:     276
 k-point ** :   0.0000 0.7857 0.4444  plane waves:     276
 k-point ** :   0.2143 0.0000 0.1111  plane waves:     270
 k-point ** :   0.2500 0.0357 0.0556  plane waves:     268
 k-point ** :   0.2857 0.0714 0.0000  plane waves:     267
 k-point ** :   0.3214 0.1071 0.9444  plane waves:     266
 k-point ** :   0.3571 0.1429 0.8889  plane waves:     271
 k-point ** :   0.3929 0.1786 0.8333  plane waves:     269
 k-point ** :   0.5000 0.2857 0.6667  plane waves:     262
 k-point ** :   0.2857 0.0714 0.8889  plane waves:     268
 k-point ** :   0.3214 0.1071 0.8333  plane waves:     269
 k-point ** :   0.3571 0.1429 0.7778  plane waves:     270
 k-point ** :   0.4643 0.2500 0.6111  plane waves:     263
 k-point ** :   0.5000 0.2857 0.5556  plane waves:     264
 k-point ** :   0.7857 0.5714 0.1111  plane waves:     264
 k-point ** :   0.8214 0.6071 0.0556  plane waves:     268
 k-point ** :   0.8571 0.6429 1.0000  plane waves:     267
 k-point ** :   0.9643 0.7500 0.8333  plane waves:     269
 k-point ** :   0.0000 0.7857 0.7778  plane waves:     270
 k-point ** :   0.2857 0.0714 0.3333  plane waves:     274
 k-point ** :   0.3214 0.1071 0.2778  plane waves:     271
 k-point ** :   0.4643 0.2500 0.0556  plane waves:     262
 k-point ** :   0.5000 0.2857 1.0000  plane waves:     258
 k-point ** :   0.7857 0.5714 0.5556  plane waves:     263
 k-point ** :   0.8214 0.6071 0.5000  plane waves:     260
 k-point ** :   0.9643 0.7500 0.2778  plane waves:     273
 k-point ** :   0.2857 0.0714 0.7778  plane waves:     269
 k-point ** :   0.4643 0.2500 0.5000  plane waves:     262
 k-point ** :   0.7857 0.5714 0.0000  plane waves:     265
 k-point ** :   1.0000 0.7143 0.0000  plane waves:     273
 k-point ** :   0.2857 0.0000 0.5556  plane waves:     276
 k-point ** :   0.3214 0.0357 0.5000  plane waves:     274
 k-point ** :   0.3571 0.0714 0.4444  plane waves:     274
 k-point ** :   0.3929 0.1071 0.3889  plane waves:     267
 k-point ** :   0.4286 0.1429 0.3333  plane waves:     266
 k-point ** :   0.4643 0.1786 0.2778  plane waves:     264
 k-point ** :   0.5000 0.2143 0.2222  plane waves:     268
 k-point ** :   0.3214 0.0357 0.9444  plane waves:     270
 k-point ** :   0.3571 0.0714 0.8889  plane waves:     268
 k-point ** :   0.3929 0.1071 0.8333  plane waves:     271
 k-point ** :   0.4286 0.1429 0.7778  plane waves:     268
 k-point ** :   0.5000 0.2143 0.6667  plane waves:     264
 k-point ** :   0.8214 0.5357 0.1667  plane waves:     267
 k-point ** :   0.8571 0.5714 0.1111  plane waves:     268
 k-point ** :   0.8929 0.6071 0.0556  plane waves:     267
 k-point ** :   0.9286 0.6429 1.0000  plane waves:     271
 k-point ** :   0.0000 0.7143 0.8889  plane waves:     272
 k-point ** :   0.3214 0.0357 0.3889  plane waves:     276
 k-point ** :   0.3571 0.0714 0.3333  plane waves:     272
 k-point ** :   0.3929 0.1071 0.2778  plane waves:     269
 k-point ** :   0.5000 0.2143 0.1111  plane waves:     262
 k-point ** :   0.8214 0.5357 0.6111  plane waves:     265
 k-point ** :   0.8571 0.5714 0.5556  plane waves:     267
 k-point ** :   0.8929 0.6071 0.5000  plane waves:     268
 k-point ** :   0.0000 0.7143 0.3333  plane waves:     273
 k-point ** :   0.3214 0.0357 0.8333  plane waves:     268
 k-point ** :   0.3571 0.0714 0.7778  plane waves:     266
 k-point ** :   0.5000 0.2143 0.5556  plane waves:     260
 k-point ** :   0.8214 0.5357 0.0556  plane waves:     266
 k-point ** :   0.8571 0.5714 1.0000  plane waves:     266
 k-point ** :   0.0000 0.7143 0.7778  plane waves:     269
 k-point ** :   0.3214 0.0357 0.2778  plane waves:     272
 k-point ** :   0.5000 0.2143 1.0000  plane waves:     264
 k-point ** :   0.8214 0.5357 0.5000  plane waves:     266
 k-point ** :   1.0000 0.6429 0.0000  plane waves:     269
 k-point ** :   0.3571 0.0000 0.4444  plane waves:     273
 k-point ** :   0.3929 0.0357 0.3889  plane waves:     274
 k-point ** :   0.4286 0.0714 0.3333  plane waves:     269
 k-point ** :   0.4643 0.1071 0.2778  plane waves:     269
 k-point ** :   0.5000 0.1429 0.2222  plane waves:     270
 k-point ** :   0.8571 0.5000 0.6667  plane waves:     268
 k-point ** :   0.8929 0.5357 0.6111  plane waves:     265
 k-point ** :   0.9286 0.5714 0.5556  plane waves:     265
 k-point ** :   0.9643 0.6071 0.5000  plane waves:     268
 k-point ** :   0.3571 0.0000 0.8889  plane waves:     267
 k-point ** :   0.3929 0.0357 0.8333  plane waves:     266
 k-point ** :   0.4286 0.0714 0.7778  plane waves:     269
 k-point ** :   0.8571 0.5000 0.1111  plane waves:     270
 k-point ** :   0.8929 0.5357 0.0556  plane waves:     271
 k-point ** :   0.9286 0.5714 1.0000  plane waves:     270
 k-point ** :   0.9643 0.6071 0.9444  plane waves:     270
 k-point ** :   0.3571 0.0000 0.3333  plane waves:     275
 k-point ** :   0.3929 0.0357 0.2778  plane waves:     271
 k-point ** :   0.4643 0.1071 0.1667  plane waves:     268
 k-point ** :   0.8571 0.5000 0.5556  plane waves:     264
 k-point ** :   0.8929 0.5357 0.5000  plane waves:     264
 k-point ** :   0.3571 0.0000 0.7778  plane waves:     271
 k-point ** :   0.8571 0.5000 1.0000  plane waves:     264
 k-point ** :   0.9286 0.5714 0.8889  plane waves:     269
 k-point ** :   1.0000 0.5714 0.0000  plane waves:     269
 k-point ** :   0.4286 0.0000 0.3333  plane waves:     268
 k-point ** :   0.4643 0.0357 0.2778  plane waves:     268
 k-point ** :   0.5000 0.0714 0.2222  plane waves:     270
 k-point ** :   0.9286 0.5000 0.5556  plane waves:     266
 k-point ** :   0.9643 0.5357 0.5000  plane waves:     274
 k-point ** :   0.0000 0.5714 0.4444  plane waves:     268
 k-point ** :   0.4286 0.0000 0.7778  plane waves:     267
 k-point ** :   0.5000 0.0714 0.6667  plane waves:     266
 k-point ** :   0.9286 0.5000 1.0000  plane waves:     268
 k-point ** :   0.9643 0.5357 0.9444  plane waves:     271
 k-point ** :   0.0000 0.5714 0.8889  plane waves:     267
 k-point ** :   0.4643 0.0357 0.1667  plane waves:     267
 k-point ** :   0.5000 0.0714 0.1111  plane waves:     270
 k-point ** :   0.9643 0.5357 0.3889  plane waves:     266
 k-point ** :   1.0000 0.5000 0.0000  plane waves:     268
 k-point ** :   0.5000 0.0000 0.2222  plane waves:     264
 k-point ** :   0.0000 0.5000 0.4444  plane waves:     276
 k-point ** :   0.5000 0.0000 0.6667  plane waves:     268
 k-point ** :   0.0000 0.5000 0.8889  plane waves:     268

 maximum and minimum number of plane-waves per node :       278      248

 maximum number of plane-waves:       278
 maximum index in each direction: 
   IXMAX=    3   IYMAX=    3   IZMAX=    5
   IXMIN=   -4   IYMIN=   -4   IZMIN=   -6


 serial   3D FFT for wavefunctions
 parallel 3D FFT for charge:
    minimum data exchange during FFTs selected (reduces bandwidth)


 total amount of memory used by VASP MPI-rank0    76438. kBytes
=======================================================================

   base      :      30000. kBytes
   nonl-proj :      25629. kBytes
   fftplans  :       1116. kBytes
   grid      :       1978. kBytes
   one-center:         31. kBytes
   wavefun   :      17684. kBytes
 
     INWAV:  cpu time    0.0000: real time    0.0002
 Broyden mixing: mesh for mixing (old mesh)
   NGX =  7   NGY =  7   NGZ = 11
  (NGX  = 28   NGY  = 28   NGZ  = 40)
  gives a total of    539 points

 initial charge density was supplied:
 charge density of overlapping atoms calculated
 number of electron      15.0000000 magnetization 
 keeping initial charge density in first step


--------------------------------------------------------------------------------------------------------


 Maximum index for augmentation-charges         8185 (set IRDMAX)


--------------------------------------------------------------------------------------------------------


 First call to EWALD:  gamma=   0.592
 Maximum number of real-space cells 3x 3x 2
 Maximum number of reciprocal cells 3x 3x 3

    FEWALD:  cpu time    0.0060: real time    0.0060


--------------------------------------- Iteration      1(   1)  ---------------------------------------


    POTLOK:  cpu time    0.0690: real time    0.0714
    SETDIJ:  cpu time    0.0290: real time    0.0287
     EDDAV:  cpu time   11.5412: real time   11.5899
       DOS:  cpu time    0.0780: real time    0.0778
    --------------------------------------------
      LOOP:  cpu time   11.7172: real time   11.7679

 eigenvalue-minimisations  :  7574
 total energy-change (2. order) : 0.3300715E+02  (-0.4390663E+03)
 number of electron      15.0000000 magnetization 
 augmentation part       15.0000000 magnetization 

 Free energy of the ion-electron system (eV)
  ---------------------------------------------------
  alpha Z        PSCENC =        94.36054831
  Ewald energy   TEWEN  =     -1004.43955431
  -Hartree energ DENC   =      -209.76560100
  -exchange      EXHF   =         0.00000000
  -V(xc)+E(xc)   XCENC  =       -31.10490525
  PAW double counting   =       962.87559130     -956.76773557
  entropy T*S    EENTRO =         0.00116475
  eigenvalues    EBANDS =       159.92895658
  atomic energy  EATOM  =      1017.91868483
  Solvation  Ediel_sol  =         0.00000000
  ---------------------------------------------------
  free energy    TOTEN  =        33.00714964 eV

  energy without entropy =       33.00598489  energy(sigma->0) =       33.00676139


--------------------------------------------------------------------------------------------------------




--------------------------------------- Iteration      1(   2)  ---------------------------------------


     EDDAV:  cpu time    9.3796: real time    9.4228
       DOS:  cpu time    0.0790: real time    0.0794
    --------------------------------------------
      LOOP:  cpu time    9.4586: real time    9.5022

 eigenvalue-minimisations  :  7488
 total energy-change (2. order) :-0.5236180E+02  (-0.4757145E+02)
 number of electron      15.0000000 magnetization 
 augmentation part       15.0000000 magnetization 

 Free energy of the ion-electron system (eV)
  ---------------------------------------------------
  alpha Z        PSCENC =        94.36054831
  Ewald energy   TEWEN  =     -1004.43955431
  -Hartree energ DENC   =      -209.76560100
  -exchange      EXHF   =         0.00000000
  -V(xc)+E(xc)   XCENC  =       -31.10490525
  PAW double counting   =       962.87559130     -956.76773557
  entropy T*S    EENTRO =         0.00191101
  eigenvalues    EBANDS =       107.56641520
  atomic energy  EATOM  =      1017.91868483
  Solvation  Ediel_sol  =         0.00000000
  ---------------------------------------------------
  free energy    TOTEN  =       -19.35464549 eV

  energy without entropy =      -19.35655650  energy(sigma->0) =      -19.35528249


--------------------------------------------------------------------------------------------------------




--------------------------------------- Iteration      1(   3)  ---------------------------------------


     EDDAV:  cpu time   10.2504: real time   10.2971
       DOS:  cpu time    0.0870: real time    0.0878
    --------------------------------------------
      LOOP:  cpu time   10.3374: real time   10.3849

 eigenvalue-minimisations  :  8640
 total energy-change (2. order) :-0.2771953E+01  (-0.2600293E+01)
 number of electron      15.0000000 magnetization 
 augmentation part       15.0000000 magnetization 

 Free energy of the ion-electron system (eV)
  ---------------------------------------------------
  alpha Z        PSCENC =        94.36054831
  Ewald energy   TEWEN  =     -1004.43955431
  -Hartree energ DENC   =      -209.76560100
  -exchange      EXHF   =         0.00000000
  -V(xc)+E(xc)   XCENC  =       -31.10490525
  PAW double counting   =       962.87559130     -956.76773557
  entropy T*S    EENTRO =         0.00042587
  eigenvalues    EBANDS =       104.79594758
  atomic energy  EATOM  =      1017.91868483
  Solvation  Ediel_sol  =         0.00000000
  ---------------------------------------------------
  free energy    TOTEN  =       -22.12659825 eV

  energy without entropy =      -22.12702412  energy(sigma->0) =      -22.12674021


--------------------------------------------------------------------------------------------------------




--------------------------------------- Iteration      1(   4)  ---------------------------------------


     EDDAV:  cpu time    9.7885: real time    9.8367
       DOS:  cpu time    0.0890: real time    0.0887
    --------------------------------------------
      LOOP:  cpu time    9.8775: real time    9.9254

[...]
  band No.  band energies     occupation 
      1       2.6380      2.00000
      2       4.3268      2.00000
      3       5.7867      2.00000
      4       6.5695      2.00000
      5       7.0116      2.00000
      6       7.1849      2.00000
      7       7.2468      2.00000
      8       7.4976      2.00000
      9       9.7432     -0.00000
     10      10.3913     -0.00000
     11      11.8617     -0.00000

 k-point   299 :       0.8571    0.5000    1.0000
  band No.  band energies     occupation 
      1       4.2259      2.00000
      2       4.8173      2.00000
      3       5.1575      2.00000
      4       5.9264      2.00000
      5       6.2914      2.00000
      6       6.3095      2.00000
      7       8.1943      2.05378
      8       8.2672      2.06914
      9       9.0440     -0.00077
     10      10.7380     -0.00000
     11      11.2721     -0.00000

 k-point   300 :       0.9286    0.5714    0.8889
  band No.  band energies     occupation 
      1       3.4083      2.00000
      2       4.7209      2.00000
      3       5.7912      2.00000
      4       6.0819      2.00000
      5       6.4882      2.00000
      6       6.7222      2.00000
      7       7.5630      2.00000
      8       7.7086      2.00000
      9       9.4279     -0.00000
     10      10.3990     -0.00000
     11      11.5927     -0.00000

 k-point   301 :       1.0000    0.5714    0.0000
  band No.  band energies     occupation 
      1       3.2777      2.00000
      2       5.2635      2.00000
      3       5.6087      2.00000
      4       5.8076      2.00000
      5       6.3861      2.00000
      6       6.7378      2.00000
      7       7.4771      2.00000
      8       7.6423      2.00000
      9       9.6135     -0.00000
     10       9.9471     -0.00000
     11      11.6229     -0.00000

 k-point   302 :       0.4286    0.0000    0.3333
  band No.  band energies     occupation 
      1       3.1054      2.00000
      2       3.6443      2.00000
      3       6.4978      2.00000
      4       7.0147      2.00000
      5       7.0312      2.00000
      6       7.1503      2.00000
      7       7.3259      2.00000
      8       7.9623      2.00101
      9       9.7111     -0.00000
     10      10.5390     -0.00000
     11      12.0290     -0.00000

 k-point   303 :       0.4643    0.0357    0.2778
  band No.  band energies     occupation 
      1       3.3595      2.00000
      2       3.7208      2.00000
      3       6.4641      2.00000
      4       6.7894      2.00000
      5       7.1095      2.00000
      6       7.1387      2.00000
      7       7.2526      2.00000
      8       7.5951      2.00000
      9       9.5974     -0.00000
     10      10.5512     -0.00000
     11      11.9325     -0.00000

 k-point   304 :       0.5000    0.0714    0.2222
  band No.  band energies     occupation 
      1       3.7603      2.00000
      2       3.8254      2.00000
      3       6.3906      2.00000
      4       6.4089      2.00000
      5       6.8457      2.00000
      6       7.0139      2.00000
      7       7.3632      2.00000
      8       7.4541      2.00000
      9       9.3908     -0.00000
     10      10.7802     -0.00000
     11      11.7557     -0.00000

 k-point   305 :       0.9286    0.5000    0.5556
  band No.  band energies     occupation 
      1       3.0232      2.00000
      2       3.7040      2.00000
      3       6.7006      2.00000
      4       6.8595      2.00000
      5       6.8625      2.00000
      6       7.3096      2.00000
      7       8.1905      2.05206
      8       8.3363      1.98364
      9       8.9827     -0.00321
     10      11.5387     -0.00000
     11      11.9263     -0.00000

 k-point   306 :       0.9643    0.5357    0.5000
  band No.  band energies     occupation 
      1       2.9391      2.00000
      2       3.5427      2.00000
      3       6.7639      2.00000
      4       6.8463      2.00000
      5       6.9469      2.00000
      6       7.1975      2.00000
      7       8.2456      2.07055
      8       8.8915     -0.01765
      9       9.0926     -0.00021
     10      11.0059     -0.00000
     11      11.8360     -0.00000

 k-point   307 :       0.0000    0.5714    0.4444
  band No.  band energies     occupation 
      1       2.9873      2.00000
      2       3.4836      2.00000
      3       6.7127      2.00000
      4       6.9221      2.00000
      5       7.0199      2.00000
      6       7.1140      2.00000
      7       7.8297      2.00002
      8       8.6979     -0.05053
      9       9.4896     -0.00000
     10      10.7801     -0.00000
     11      11.9461     -0.00000

 k-point   308 :       0.4286    0.0000    0.7778
  band No.  band energies     occupation 
      1       3.2211      2.00000
      2       4.0402      2.00000
      3       6.1482      2.00000
      4       6.7208      2.00000
      5       6.9143      2.00000
      6       7.1915      2.00000
      7       7.2424      2.00000
      8       7.3544      2.00000
      9       9.8620     -0.00000
     10      10.1533     -0.00000
     11      11.8632     -0.00000

 k-point   309 :       0.5000    0.0714    0.6667
  band No.  band energies     occupation 
      1       3.2755      2.00000
      2       3.7559      2.00000
      3       6.5554      2.00000
      4       6.7442      2.00000
      5       7.0529      2.00000
      6       7.2835      2.00000
      7       7.5198      2.00000
      8       7.7650      2.00000
      9       9.2592     -0.00000
     10      11.2420     -0.00000
     11      11.9300     -0.00000

 k-point   310 :       0.9286    0.5000    1.0000
  band No.  band energies     occupation 
      1       3.8727      2.00000
      2       5.1328      2.00000
      3       5.3923      2.00000
      4       6.1445      2.00000
      5       6.2153      2.00000
      6       6.2707      2.00000
      7       7.6601      2.00000
      8       7.8474      2.00004
      9       9.2436     -0.00000
     10      10.2570     -0.00000
     11      11.4948     -0.00000

 k-point   311 :       0.9643    0.5357    0.9444
  band No.  band energies     occupation 
      1       3.6202      2.00000
      2       4.9064      2.00000
      3       5.8161      2.00000
      4       6.0057      2.00000
      5       6.3478      2.00000
      6       6.5202      2.00000
      7       7.4920      2.00000
      8       7.6785      2.00000
      9       9.4522     -0.00000
     10      10.0525     -0.00000
     11      11.5943     -0.00000

 k-point   312 :       0.0000    0.5714    0.8889
  band No.  band energies     occupation 
      1       3.2699      2.00000
      2       4.6599      2.00000
      3       5.8512      2.00000
      4       6.2429      2.00000
      5       6.5772      2.00000
      6       6.7965      2.00000
      7       7.3883      2.00000
      8       7.5529      2.00000
      9       9.7790     -0.00000
     10       9.9302     -0.00000
     11      11.6954     -0.00000

 k-point   313 :       0.4643    0.0357    0.1667
  band No.  band energies     occupation 
      1       3.5688      2.00000
      2       4.1709      2.00000
      3       6.1686      2.00000
      4       6.4946      2.00000
      5       6.6764      2.00000
      6       6.7914      2.00000
      7       7.3586      2.00000
      8       7.4587      2.00000
      9       9.6117     -0.00000
     10      10.2028     -0.00000
     11      11.7360     -0.00000

 k-point   314 :       0.5000    0.0714    0.1111
  band No.  band energies     occupation 
      1       3.8660      2.00000
      2       4.4380      2.00000
      3       6.0940      2.00000
      4       6.1431      2.00000
      5       6.3635      2.00000
      6       6.4466      2.00000
      7       7.5954      2.00000
      8       7.6761      2.00000
      9       9.3382     -0.00000
     10      10.3890     -0.00000
     11      11.5732     -0.00000

 k-point   315 :       0.9643    0.5357    0.3889
  band No.  band energies     occupation 
      1       3.0577      2.00000
      2       3.5806      2.00000
      3       6.6721      2.00000
      4       6.9244      2.00000
      5       6.9680      2.00000
      6       7.1597      2.00000
      7       7.8496      2.00005
      8       8.3253      2.00849
      9       9.3936     -0.00000
     10      10.8790     -0.00000
     11      12.0638     -0.00000

 k-point   316 :       1.0000    0.5000    0.0000
  band No.  band energies     occupation 
      1       3.7047      2.00000
      2       5.1720      2.00000
      3       5.4937      2.00000
      4       6.1656      2.00000
      5       6.3181      2.00000
      6       6.3652      2.00000
      7       7.4486      2.00000
      8       7.6840      2.00000
      9       9.4761     -0.00000
     10       9.9022     -0.00000
     11      11.5920     -0.00000

 k-point   317 :       0.5000    0.0000    0.2222
  band No.  band energies     occupation 
      1       3.6385      2.00000
      2       3.7090      2.00000
      3       6.5219      2.00000
      4       6.5541      2.00000
      5       6.8989      2.00000
      6       7.2303      2.00000
      7       7.2456      2.00000
      8       7.2641      2.00000
      9       9.8145     -0.00000
     10      10.0773     -0.00000
     11      11.8652     -0.00000

 k-point   318 :       0.0000    0.5000    0.4444
  band No.  band energies     occupation 
      1       2.9308      2.00000
      2       3.5087      2.00000
      3       6.7446      2.00000
      4       6.8825      2.00000
      5       6.9692      2.00000
      6       7.1480      2.00000
      7       8.3617      1.90541
      8       8.7288     -0.06929
      9       9.3241     -0.00000
     10      10.7097     -0.00000
     11      12.1103     -0.00000

 k-point   319 :       0.5000    0.0000    0.6667
  band No.  band energies     occupation 
      1       3.1961      2.00000
      2       3.5627      2.00000
      3       6.6545      2.00000
      4       6.9445      2.00000
      5       7.0195      2.00000
      6       7.0683      2.00000
      7       7.5655      2.00000
      8       8.0738      2.01066
      9       9.6390     -0.00000
     10      10.4731     -0.00000
     11      12.0688     -0.00000

 k-point   320 :       0.0000    0.5000    0.8889
  band No.  band energies     occupation 
      1       3.6907      2.00000
      2       4.4319      2.00000
      3       6.2275      2.00000
      4       6.3103      2.00000
      5       6.4081      2.00000
      6       6.5044      2.00000
      7       7.3836      2.00000
      8       7.5435      2.00000
      9       9.6686     -0.00000
     10       9.8838     -0.00000
     11      11.6722     -0.00000


--------------------------------------------------------------------------------------------------------


 soft charge-density along one line, spin component           1
         0         1         2         3         4         5         6         7         8         9
 total charge-density along one line
 
 pseudopotential strength for first ion, spin component:           1
 -1.094   0.000   0.000  -0.000  -0.000  -1.714   0.000   0.000
  0.000  -1.070  -0.000  -0.000   0.000   0.000  -1.691  -0.000
  0.000  -0.000  -1.095   0.000   0.000   0.000  -0.000  -1.715
 -0.000  -0.000   0.000  -1.070   0.000  -0.000  -0.000   0.000
 -0.000   0.000   0.000   0.000  -1.005  -0.000   0.000   0.000
 -1.714   0.000   0.000  -0.000  -0.000  -2.274   0.000   0.000
  0.000  -1.691  -0.000  -0.000   0.000   0.000  -2.253  -0.000
  0.000  -0.000  -1.715   0.000   0.000   0.000  -0.000  -2.276
 -0.000  -0.000   0.000  -1.691   0.000  -0.000  -0.000   0.000
 -0.000   0.000   0.000   0.000  -1.628  -0.000   0.000   0.000
  0.000   0.000   0.002  -0.000   0.000   0.000   0.000   0.002
  0.000   0.000   0.004  -0.000   0.000   0.000   0.000   0.004
 -0.000   0.000  -0.000   0.000  -0.000  -0.000   0.000  -0.000
  0.000   0.000   0.000  -0.000   0.000   0.000   0.000   0.000
  0.000   0.000   0.000   0.000  -0.000   0.000   0.000   0.000
 -0.000   0.000  -0.000   0.000  -0.000  -0.000   0.000  -0.000
  0.000   0.000   0.000  -0.000   0.000   0.000   0.000   0.000
  0.000   0.000   0.000   0.000  -0.000   0.000   0.000   0.000
 total augmentation occupancy for first ion, spin component:           1
  1.442  -0.000   0.000  -0.000   0.000  -0.573   0.000   0.000   0.000   0.000   0.000   0.000   0.000   0.000   0.000   0.000
  0.000   1.663   0.000   0.000   0.000   0.000  -0.608   0.000   0.000  -0.000   0.000  -0.000   0.000   0.000   0.000   0.000
  0.000   0.000   2.266   0.000   0.000   0.000   0.000  -1.098  -0.000   0.000  -0.133   0.031   0.000   0.000   0.000   0.000
 -0.000   0.000   0.000   1.663  -0.000   0.000   0.000   0.000  -0.608   0.000   0.000  -0.000   0.000   0.000   0.000   0.000
  0.000  -0.000   0.000   0.000   2.520  -0.000  -0.000   0.000   0.000  -0.917   0.000   0.000   0.000   0.000   0.000   0.000
 -0.573   0.000   0.000   0.000  -0.000   1.058  -0.000   0.000   0.000   0.000   0.000   0.000   0.000   0.000   0.000   0.000
  0.000  -0.608   0.000   0.000   0.000  -0.000   1.177   0.000   0.000   0.000   0.000   0.000   0.000   0.000   0.000   0.000
  0.000   0.000  -1.098   0.000   0.000   0.000   0.000   1.407   0.000   0.000   0.214  -0.029   0.000   0.000   0.000   0.000
  0.000   0.000  -0.000  -0.608  -0.000  -0.000   0.000  -0.000   1.177   0.000   0.000   0.000   0.000   0.000   0.000   0.000
  0.000  -0.000   0.000   0.000  -0.917   0.000   0.000   0.000  -0.000   1.057   0.000   0.000   0.000   0.000   0.000   0.000
  0.000  -0.000  -0.133  -0.000   0.000   0.000   0.000   0.214   0.000   0.000   2.217  -0.248   0.000   0.000   0.000   0.000
  0.000   0.000   0.031   0.000   0.000   0.000   0.000  -0.029   0.000   0.000  -0.248   0.034   0.000   0.000   0.000   0.000
  0.000   0.000   0.000   0.000   0.000   0.000   0.000   0.000   0.000   0.000   0.000   0.000   0.308   0.000   0.000  -0.029
  0.000   0.000   0.000   0.000   0.000   0.000   0.000   0.000   0.000   0.000   0.000   0.000   0.000   0.369   0.000   0.000
  0.000   0.000   0.000   0.000   0.000   0.000   0.000   0.000   0.000   0.000   0.000   0.000   0.000   0.000   0.308   0.000
  0.000   0.000   0.000   0.000   0.000   0.000   0.000   0.000   0.000   0.000   0.000   0.000  -0.029   0.000   0.000   0.003
  0.000   0.000   0.000   0.000   0.000   0.000   0.000   0.000   0.000   0.000   0.000   0.000   0.000  -0.031   0.000   0.000
  0.000   0.000   0.000   0.000   0.000   0.000   0.000   0.000   0.000   0.000   0.000   0.000   0.000   0.000  -0.029   0.000


------------------------ aborting loop because EDIFF is reached ----------------------------------------


    CHARGE:  cpu time    1.4138: real time    1.4193
    FORLOC:  cpu time    0.0070: real time    0.0072
    FORNL :  cpu time    1.5018: real time    1.5063
    STRESS:  cpu time    4.3723: real time    4.3879
    FORCOR:  cpu time    0.0830: real time    0.0837
    FORHAR:  cpu time    0.0210: real time    0.0211
    MIXING:  cpu time    0.0050: real time    0.0044
    OFIELD:  cpu time    0.0000: real time    0.0001

  FORCE on cell =-STRESS in cart. coord.  units (eV):
  Direction    XX          YY          ZZ          XY          YZ          ZX
  --------------------------------------------------------------------------------------
  Alpha Z    94.36055    94.36055    94.36055
  Ewald    -326.73337  -326.73337  -350.97348     0.00000    -0.00000    -0.00000
  Hartree    76.20661    76.20661    38.21110    -0.00000    -0.00000    -0.00000
  E(xc)     -73.11395   -73.11395   -72.26556     0.00000    -0.00000     0.00000
  Local     -67.81310   -67.81310    -6.66980     0.00000     0.00000     0.00000
  n-local   -19.95569   -18.37681   -17.83628    -0.03412    -0.14030    -0.19131
  augment   160.30433   160.30433   159.48723    -0.00000     0.00000     0.00000
  Kinetic   152.41004   156.97142   153.85003     0.08776    -0.36870     0.10404
  Fock        0.00000     0.00000     0.00000     0.00000     0.00000     0.00000
  -------------------------------------------------------------------------------------
  Total      -1.26445    -1.26445    -1.83619     0.00000     0.00000     0.00000
  in kB     -75.61684   -75.61684  -109.80827     0.00000     0.00000     0.00000
  external pressure =      -87.01 kB  Pullay stress =        0.00 kB


 VOLUME and BASIS-vectors are now :
 -----------------------------------------------------------------------------
  energy-cutoff  :      267.97
  volume of cell :       26.79
      direct lattice vectors                 reciprocal lattice vectors
     1.885000000  1.885000000  0.000000000     0.265251989  0.265251989  0.000000000
    -1.885000000  1.885000000  0.000000000    -0.265251989  0.265251989  0.000000000
     0.000000000  0.000000000  3.770000000     0.000000000  0.000000000  0.265251989

  length of vectors
     2.665792565  2.665792565  3.770000000     0.375122961  0.375122961  0.265251989


 FORCES acting on ions
    electron-ion (+dipol)            ewald-force                    non-local-force                 convergence-correction
 -----------------------------------------------------------------------------------------------
   0.149E-14 0.425E-14 0.109E-13   -.461E-15 -.247E-14 -.808E-14   -.132E-22 0.132E-22 0.000E+00   -.536E-14 -.586E-14 -.448E-13
   0.140E-12 -.134E-12 -.662E-13   0.358E-15 0.468E-14 0.808E-14   0.000E+00 0.000E+00 0.000E+00   -.525E-16 0.166E-15 0.102E-13
 -----------------------------------------------------------------------------------------------
   0.141E-12 -.130E-12 -.553E-13   -.104E-15 0.222E-14 0.000E+00   -.132E-22 0.132E-22 0.000E+00   -.541E-14 -.570E-14 -.347E-13
 
 
 POSITION                                       TOTAL-FORCE (eV/Angst)
 -----------------------------------------------------------------------------------
      0.00000      0.00000      0.00000        -0.000000      0.000000      0.000000
      0.00000      1.88500      1.88500         0.000000     -0.000000      0.000000
 -----------------------------------------------------------------------------------
    total drift:                                0.000000     -0.000000     -0.000000


--------------------------------------------------------------------------------------------------------



  FREE ENERGIE OF THE ION-ELECTRON SYSTEM (eV)
  ---------------------------------------------------
  free  energy   TOTEN  =       -19.93263769 eV

  energy  without entropy=      -19.93714633  energy(sigma->0) =      -19.93414057
 


--------------------------------------------------------------------------------------------------------


    POTLOK:  cpu time    0.1060: real time    0.1066


--------------------------------------------------------------------------------------------------------


 writing wavefunctions
     LOOP+:  cpu time  156.5422: real time  157.6143
    4ORBIT:  cpu time    0.0020: real time    0.0023

 total amount of memory used by VASP MPI-rank0    76438. kBytes
=======================================================================

   base      :      30000. kBytes
   nonl-proj :      25629. kBytes
   fftplans  :       1116. kBytes
   grid      :       1978. kBytes
   one-center:         31. kBytes
   wavefun   :      17684. kBytes
 
  
  
 General timing and accounting informations for this job:
 ========================================================
  
                  Total CPU time used (sec):      158.576
                            User time (sec):      157.875
                          System time (sec):        0.701
                         Elapsed time (sec):      160.629
  
                   Maximum memory used (kb):       72444.
                   Average memory used (kb):           0.
  
                          Minor page faults:        18889
                          Major page faults:            8
                 Voluntary context switches:          325
