 vasp.6.0.0 18Apr17 (build Mar 23 2018 09:59:13) complex                        
  
 executed on             LinuxIFC date 2018.06.18  11:00:52
 running on    1 total cores
 distrk:  each k-point on    1 cores,    1 groups
 distr:  one band on NCORES_PER_BAND=   1 cores,    1 groups


--------------------------------------------------------------------------------------------------------


 INCAR:
 POTCAR:    PAW_PBE Co 02Aug2007                  
 POTCAR:    PAW_PBE V 08Apr2002                   
 POTCAR:    PAW_PBE Co 02Aug2007                  
   VRHFIN =Co: d8 s1                                                            
   LEXCH  = PE                                                                  
   EATOM  =   813.3670 eV,   59.7808 Ry                                         
                                                                                
   TITEL  = PAW_PBE Co 02Aug2007                                                
   LULTRA =        F    use ultrasoft PP ?                                      
   IUNSCR =        1    unscreen: 0-lin 1-nonlin 2-no                           
   RPACOR =    2.000    partial core radius                                     
   POMASS =   58.933; ZVAL   =    9.000    mass and valenz                      
   RCORE  =    2.300    outmost cutoff radius                                   
   RWIGS  =    2.460; RWIGS  =    1.302    wigner-seitz radius (au A)           
   ENMAX  =  267.968; ENMIN  =  200.976 eV                                      
   RCLOC  =    1.203    cutoff for local pot                                    
   LCOR   =        T    correct aug charges                                     
   LPAW   =        T    paw PP                                                  
   EAUG   =  477.818                                                            
   DEXC   =    0.000                                                            
   RMAX   =    2.360    core radius for proj-oper                               
   RAUG   =    1.300    factor for augmentation sphere                          
   RDEP   =    2.393    radius for radial grids                                 
   RDEPT  =    1.864    core radius for aug-charge                              
                                                                                
   Atomic configuration                                                         
    9 entries                                                                   
     n  l   j            E        occ.                                          
     1  0  0.50     -7587.6674   2.0000                                         
     2  0  0.50      -893.6084   2.0000                                         
     2  1  1.50      -764.5805   6.0000                                         
     3  0  0.50       -97.5973   2.0000                                         
     3  1  1.50       -60.9648   6.0000                                         
     3  2  2.50        -4.2382   8.0000                                         
     4  0  0.50        -4.3746   1.0000                                         
     4  1  1.50        -4.0817   0.0000                                         
     4  3  2.50        -1.3606   0.0000                                         
   Description                                                                  
     l       E           TYP  RCUT    TYP  RCUT                                 
     2     -4.2382362     23  2.300                                             
     2     -5.5988188     23  2.300                                             
     0     -4.3745797     23  2.300                                             
     0      5.7660125     23  2.300                                             
     1     -2.7211652     23  2.300                                             
     1     16.9860234     23  2.300                                             
  local pseudopotential read in
  partial core-charges read in
  partial kinetic energy density read in
  atomic valenz-charges read in
  non local Contribution for L=           2  read in
    real space projection operators read in
  non local Contribution for L=           2  read in
    real space projection operators read in
  non local Contribution for L=           0  read in
    real space projection operators read in
  non local Contribution for L=           0  read in
    real space projection operators read in
  non local Contribution for L=           1  read in
    real space projection operators read in
  non local Contribution for L=           1  read in
    real space projection operators read in
    PAW grid and wavefunctions read in
 
   number of l-projection  operators is LMAX  =           6
   number of lm-projection operators is LMMAX =          18
 
 POTCAR:    PAW_PBE V 08Apr2002                   
   VRHFIN =V: p6 d4 s1                                                          
   LEXCH  = PE                                                                  
   EATOM  =   170.8679 eV,   12.5584 Ry                                         
                                                                                
   TITEL  = PAW_PBE V 08Apr2002                                                 
   LULTRA =        F    use ultrasoft PP ?                                      
   IUNSCR =        1    unscreen: 0-lin 1-nonlin 2-no                           
   RPACOR =    2.000    partial core radius                                     
   POMASS =   50.941; ZVAL   =    5.000    mass and valenz                      
   RCORE  =    2.700    outmost cutoff radius                                   
   RWIGS  =    2.500; RWIGS  =    1.323    wigner-seitz radius (au A)           
   ENMAX  =  192.543; ENMIN  =  144.408 eV                                      
   RCLOC  =    1.779    cutoff for local pot                                    
   LCOR   =        T    correct aug charges                                     
   LPAW   =        T    paw PP                                                  
   EAUG   =  358.662                                                            
   DEXC   =    0.000                                                            
   RMAX   =    2.768    core radius for proj-oper                               
   RAUG   =    1.300    factor for augmentation sphere                          
   RDEP   =    2.762    radius for radial grids                                 
   RDEPT  =    2.240    core radius for aug-charge                              
                                                                                
   Atomic configuration                                                         
    9 entries                                                                   
     n  l   j            E        occ.                                          
     1  0  0.50     -5360.7193   2.0000                                         
     2  0  0.50      -598.4546   2.0000                                         
     2  1  1.50      -499.0155   6.0000                                         
     3  0  0.50       -66.5711   2.0000                                         
     3  1  1.50       -40.5282   6.0000                                         
     3  2  2.50        -2.4291   4.0000                                         
     4  0  0.50        -3.8743   1.0000                                         
     4  1  0.50        -2.7212   0.0000                                         
     4  3  2.50        -1.3606   0.0000                                         
   Description                                                                  
     l       E           TYP  RCUT    TYP  RCUT                                 
     2     -2.4290901     23  2.700                                             
     2     -3.7896727     23  2.700                                             
     0     -3.8742752     23  2.700                                             
     0     27.2116520     23  2.700                                             
     1     -2.7211652     23  2.700                                             
     1     27.2116520     23  2.700                                             
  local pseudopotential read in
  partial core-charges read in
  partial kinetic energy density read in
  atomic valenz-charges read in
  non local Contribution for L=           2  read in
    real space projection operators read in
  non local Contribution for L=           2  read in
    real space projection operators read in
  non local Contribution for L=           0  read in
    real space projection operators read in
  non local Contribution for L=           0  read in
    real space projection operators read in
  non local Contribution for L=           1  read in
    real space projection operators read in
  non local Contribution for L=           1  read in
    real space projection operators read in
    PAW grid and wavefunctions read in
 
   number of l-projection  operators is LMAX  =           6
   number of lm-projection operators is LMMAX =          18
 
  PAW_PBE Co 02Aug2007                  :
 energy of atom  1       EATOM= -813.3670
 kinetic energy error for atom=    0.0366 (will be added to EATOM!!)
  PAW_PBE V 08Apr2002                   :
 energy of atom  2       EATOM= -170.8679
 kinetic energy error for atom=    0.0066 (will be added to EATOM!!)
 
 
 POSCAR: Co  V                                   
  positions in cartesian coordinates
  No initial velocities read in
 exchange correlation table for  LEXCH =        8
   RHO(1)=    0.500       N(1)  =     2000
   RHO(2)=  100.500       N(2)  =     4000
 


--------------------------------------------------------------------------------------------------------


 ion  position               nearest neighbor table
   1  0.000  0.000  0.000-   2 2.64   3 2.64   3 2.64   4 2.64   2 2.64   4 2.64   2 2.64   3 2.64
                             3 2.64   2 2.64
   2  0.500  0.500  0.000-   1 2.64   4 2.64   3 2.64   4 2.64   1 2.64   3 2.64   1 2.64   4 2.64
                             4 2.64   1 2.64
   3  0.500  0.000  0.500-   1 2.64   4 2.64   1 2.64   2 2.64   2 2.64   4 2.64   1 2.64   4 2.64
                             1 2.64   4 2.64
   4  0.000  0.500  0.500-   2 2.64   3 2.64   1 2.64   2 2.64   1 2.64   3 2.64   2 2.64   3 2.64
                             2 2.64   3 2.64
 
  LATTYP: Found a base centered orthorhombic cell.
 ALAT       =     5.2891587233
 B/A-ratio  =     1.4142135624
 C/A-ratio  =     0.5000000000
  
  Lattice vectors:
  
 A1 = (  -1.8700000000,   1.8700000000,   3.7400000000)
 A2 = (  -1.8700000000,   1.8700000000,  -3.7400000000)
 A3 = (  -1.8700000000,  -1.8700000000,   0.0000000000)


Analysis of symmetry for initial positions (statically):
=====================================================================
 Subroutine PRICEL returns:
 Original cell was already a primitive cell.
 

 Routine SETGRP: Setting up the symmetry group for a 
 base centered orthorhombic supercell.


 Subroutine GETGRP returns: Found  8 space group operations
 (whereof  8 operations were pure point group operations)
 out of a pool of  8 trial point group operations.


The static configuration has the point symmetry D_2h.


Analysis of symmetry for dynamics (positions and initial velocities):
=====================================================================
 Subroutine PRICEL returns:
 Original cell was already a primitive cell.
 

 Routine SETGRP: Setting up the symmetry group for a 
 base centered orthorhombic supercell.


 Subroutine GETGRP returns: Found  8 space group operations
 (whereof  8 operations were pure point group operations)
 out of a pool of  8 trial point group operations.


The dynamic configuration has the point symmetry D_2h.


 Subroutine INISYM returns: Found  8 space group operations
 (whereof  8 operations are pure point group operations),
 and found     1 'primitive' translations

 
 
 KPOINTS: Server version 2018.05.22. K-point grid 
  k-points in reciprocal lattice
Space group operators:
 irot       det(A)        alpha          n_x          n_y          n_z        tau_x        tau_y        tau_z
    1     1.000000     0.000001     1.000000     0.000000     0.000000     0.000000     0.000000     0.000000
    2    -1.000000     0.000001     1.000000     0.000000     0.000000     0.000000     0.000000     0.000000
    3     1.000000   180.000000     0.707107     0.707107     0.000000     0.000000     0.000000     0.000000
    4    -1.000000   180.000000     0.707107     0.707107     0.000000     0.000000     0.000000     0.000000
    5     1.000000   180.000000     0.000000     0.000000     1.000000     0.000000     0.000000     0.000000
    6    -1.000000   180.000000     0.000000     0.000000     1.000000     0.000000     0.000000     0.000000
    7     1.000000   180.000000     0.707107    -0.707107     0.000000     0.000000     0.000000     0.000000
    8    -1.000000   180.000000     0.707107    -0.707107     0.000000     0.000000     0.000000     0.000000


--------------------------------------------------------------------------------------------------------




 Dimension of arrays:
   k-points           NKPTS =    294   k-points in BZ     NKDIM =    294   number of bands    NBANDS=     16
   number of dos      NEDOS =    301   number of ions     NIONS =      4
   non local maximal  LDIM  =      6   non local SUM 2l+1 LMDIM =     18
   total plane-waves  NPLWV =   8064
   max r-space proj   IRMAX =      1   max aug-charges    IRDMAX=   9547
   dimension x,y,z NGX =    14 NGY =   24 NGZ =   24
   dimension x,y,z NGXF=    28 NGYF=   48 NGZF=   48
   support grid    NGXF=    28 NGYF=   48 NGZF=   48
   ions per type =               1   3
   NGX,Y,Z   is equivalent  to a cutoff of   8.80,  8.71,  8.71 a.u.
   NGXF,Y,Z  is equivalent  to a cutoff of  17.60, 17.42, 17.42 a.u.

 SYSTEM =  unknown system                          
 POSCAR =  Co  V                                   

 Startparameter for this run:
   NWRITE =      2    write-flag & timer
   PREC   = a         normal or accurate (medium, high low for compatibility)
   ISTART =      0    job   : 0-new  1-cont  2-samecut
   ICHARG =      2    charge: 1-file 2-atom 10-const
   ISPIN  =      1    spin polarized calculation?
   LNONCOLLINEAR =      F non collinear calculations
   LSORBIT =      F    spin-orbit coupling
   INIWAV =      1    electr: 0-lowe 1-rand  2-diag
   LASPH  =      F    aspherical Exc in radial PAW
   METAGGA=      F    non-selfconsistent MetaGGA calc.

 Electronic Relaxation 1
   ENCUT  =  268.0 eV  19.70 Ry    4.44 a.u.   3.53  6.11  6.11*2*pi/ulx,y,z
   ENINI  =  268.0     initial cutoff
   ENAUG  =  477.8 eV  augmentation charge cutoff
   NELM   =     60;   NELMIN=  2; NELMDL= -5     # of ELM steps 
   EDIFF  = 0.1E-04   stopping-criterion for ELM
   LREAL  =      F    real-space projection
   NLSPLINE    = F    spline interpolate recip. space projectors
   LCOMPAT=      F    compatible to vasp.4.4
   GGA_COMPAT  = T    GGA compatible to vasp.4.4-vasp.4.6
   LMAXPAW     = -100 max onsite density
   LMAXMIX     =    2 max onsite mixed and CHGCAR
   VOSKOWN=      0    Vosko Wilk Nusair interpolation
   ROPT   =    0.00000   0.00000
 Ionic relaxation
   EDIFFG = 0.1E-03   stopping-criterion for IOM
   NSW    =      0    number of steps for IOM
   NBLOCK =      1;   KBLOCK =      1    inner block; outer block 
   IBRION =     -1    ionic relax: 0-MD 1-quasi-New 2-CG
   NFREE  =      0    steps in history (QN), initial steepest desc. (CG)
   ISIF   =      2    stress and relaxation
   IWAVPR =     10    prediction:  0-non 1-charg 2-wave 3-comb
   ISYM   =      2    0-nonsym 1-usesym 2-fastsym
   LCORR  =      T    Harris-Foulkes like correction to forces

   POTIM  = 0.5000    time-step for ionic-motion
   TEIN   =    0.0    initial temperature
   TEBEG  =    0.0;   TEEND  =   0.0 temperature during run
   SMASS  =  -3.00    Nose mass-parameter (am)
   estimated Nose-frequenzy (Omega)   =  0.10E-29 period in steps =****** mass=  -0.160E-27a.u.
   SCALEE = 1.0000    scale energy and forces
   NPACO  =    256;   APACO  = 16.0  distance and # of slots for P.C.
   PSTRESS=    0.0 pullay stress

  Mass of Ions in am
   POMASS =  58.93 50.94
  Ionic Valenz
   ZVAL   =   9.00  5.00
  Atomic Wigner-Seitz radii
   RWIGS  =  -1.00 -1.00
  virtual crystal weights 
   VCA    =   1.00  1.00
   NELECT =      24.0000    total number of electrons
   NUPDOWN=      -1.0000    fix difference up-down

 DOS related values:
   EMIN   =  10.00;   EMAX   =-10.00  energy-range for DOS
   EFERMI =   0.00
   ISMEAR =     1;   SIGMA  =   0.20  broadening in eV -4-tet -1-fermi 0-gaus

 Electronic relaxation 2 (details)
   IALGO  =     38    algorithm
   LDIAG  =      T    sub-space diagonalisation (order eigenvalues)
   LSUBROT=      F    optimize rotation matrix (better conditioning)
   TURBO    =      0    0=normal 1=particle mesh
   IRESTART =      0    0=no restart 2=restart with 2 vectors
   NREBOOT  =      0    no. of reboots
   NMIN     =      0    reboot dimension
   EREF     =   0.00    reference energy to select bands
   IMIX   =      4    mixing-type and parameters
     AMIX     =   0.40;   BMIX     =  1.00
     AMIX_MAG =   1.60;   BMIX_MAG =  1.00
     AMIN     =   0.10
     WC   =   100.;   INIMIX=   1;  MIXPRE=   1;  MAXMIX= -45

 Intra band minimization:
   WEIMIN = 0.0000     energy-eigenvalue tresh-hold
   EBREAK =  0.16E-06  absolut break condition
   DEPER  =   0.30     relativ break condition  

   TIME   =   0.40     timestep for ELM

  volume/ion in A,a.u.               =      13.08        88.26
  Fermi-wavevector in a.u.,A,eV,Ry     =   1.262623  2.386011 21.690632  1.594216
  Thomas-Fermi vector in A             =   2.396022
 
 Write flags
   LWAVE        =      T    write WAVECAR
   LDOWNSAMPLE  =      F    k-point downsampling of WAVECAR
   LCHARG       =      T    write CHGCAR
   LVTOT        =      F    write LOCPOT, total local potential
   LVHAR        =      F    write LOCPOT, Hartree potential only
   LELF         =      F    write electronic localiz. function (ELF)
   LORBIT       =      0    0 simple, 1 ext, 2 COOP (PROOUT), +10 PAW based schemes


 Dipole corrections
   LMONO  =      F    monopole corrections only (constant potential shift)
   LDIPOL =      F    correct potential (dipole corrections)
   IDIPOL =      0    1-x, 2-y, 3-z, 4-all directions 
   EPSILON=  1.0000000 bulk dielectric constant

 Exchange correlation treatment:
   GGA     =    PE    GGA type
   LEXCH   =     8    internal setting for exchange type
   VOSKOWN=      0    Vosko Wilk Nusair interpolation
   LHFCALC =     F    Hartree Fock is set to
   LHFONE  =     F    Hartree Fock one center treatment
   AEXX    =    0.0000 exact exchange contribution

 Linear response parameters
   LEPSILON=     F    determine dielectric tensor
   LRPA    =     F    only Hartree local field effects (RPA)
   LNABLA  =     F    use nabla operator in PAW spheres
   LVEL    =     F    velocity operator in full k-point grid
   LINTERFAST=   F  fast interpolation
   KINTER  =     0    interpolate to denser k-point grid
   CSHIFT  =0.1000    complex shift for real part using Kramers Kronig
   OMEGAMAX=  -1.0    maximum frequency
   DEG_THRESHOLD= 0.2000000E-02 threshold for treating states as degnerate
   RTIME   =   -0.100 relaxation time in fs
  (WPLASMAI=    0.000 imaginary part of plasma frequency in eV, 0.658/RTIME)
   DFIELD  = 0.0000000 0.0000000 0.0000000 field for delta impulse in time
 
 Orbital magnetization related:
   ORBITALMAG=     F  switch on orbital magnetization
   LCHIMAG   =     F  perturbation theory with respect to B field
   DQ        =  0.001000  dq finite difference perturbation B field
   LLRAUG    =     F  two centre corrections for induced B field



--------------------------------------------------------------------------------------------------------


 Static calculation
 charge density and potential will be updated during run
 non-spin polarized calculation
 Variant of blocked Davidson
 Davidson routine will perform the subspace rotation
 perform sub-space diagonalisation
    after iterative eigenvector-optimisation
 modified Broyden-mixing scheme, WC =      100.0
 initial mixing is a Kerker type mixing with AMIX =  0.4000 and BMIX =      1.0000
 Hartree-type preconditioning will be used
 using additional bands            4
 reciprocal scheme for non local part
 use partial core corrections
 calculate Harris-corrections to forces 
   (improved forces if not selfconsistent)
 use gradient corrections 
 use of overlap-Matrix (Vanderbilt PP)
 Methfessel and Paxton  Order N= 1 SIGMA  =   0.20


--------------------------------------------------------------------------------------------------------


  energy-cutoff  :      267.97
  volume of cell :       52.31
      direct lattice vectors                 reciprocal lattice vectors
     1.870000000  1.870000000  0.000000000     0.267379679  0.267379679  0.000000000
    -1.870000000  1.870000000  3.740000000    -0.133689840  0.133689840  0.133689840
     1.870000000 -1.870000000  3.740000000     0.133689840 -0.133689840  0.133689840

  length of vectors
     2.644579362  4.580545819  4.580545819     0.378131969  0.231557595  0.231557595


 
 k-points in units of 2pi/SCALE and weight: Server version 2018.05.22. K-point grid 
   0.00000000  0.00000000  0.00000000       0.001
   0.24754657  0.26664512  0.25401070       0.004
   0.22771346  0.26591056  0.24064171       0.004
   0.20788035  0.26517600  0.22727273       0.004
   0.18804725  0.26444144  0.21390374       0.004
   0.16821414  0.26370688  0.20053476       0.004
   0.14838103  0.26297232  0.18716578       0.004
   0.12854792  0.26223776  0.17379679       0.004
   0.10871481  0.26150320  0.16042781       0.004
   0.08888171  0.26076864  0.14705882       0.004
   0.06904860  0.26003408  0.13368984       0.002
   0.04921549  0.25929952  0.12032086       0.004
   0.16307222  0.12487512  0.24064171       0.004
   0.14323911  0.12414057  0.22727273       0.002
   0.12340601  0.12340601  0.21390374       0.002
   0.10357290  0.12267145  0.20053476       0.004
   0.08373979  0.12193689  0.18716578       0.004
   0.06390668  0.12120233  0.17379679       0.004
   0.04407357  0.12046777  0.16042781       0.004
   0.02424047  0.11973321  0.14705882       0.004
   0.00440736  0.11899865  0.13368984       0.002
  -0.01542575  0.11826409  0.12032086       0.004
  -0.03525886  0.11752953  0.10695187       0.004
  -0.05509197  0.11679497  0.09358289       0.004
   0.05876476 -0.01762943  0.21390374       0.004
   0.03893166 -0.01836399  0.20053476       0.004
   0.28647823  0.24828113  0.18716578       0.002
   0.26664512  0.24754657  0.17379679       0.004
   0.24681201  0.24681201  0.16042781       0.002
   0.22697890  0.24607745  0.14705882       0.004
   0.20714580  0.24534289  0.13368984       0.002
   0.18731269  0.24460833  0.12032086       0.004
   0.16747958  0.24387377  0.10695187       0.004
   0.14764647  0.24313921  0.09358289       0.004
   0.12781336  0.24240465  0.08021390       0.004
   0.24167009  0.10798026  0.20053476       0.002
   0.22183699  0.10724570  0.18716578       0.004
   0.20200388  0.10651114  0.17379679       0.004
   0.18217077  0.10577658  0.16042781       0.004
   0.16233766  0.10504202  0.14705882       0.002
   0.14250455  0.10430746  0.13368984       0.002
   0.12267145  0.10357290  0.12032086       0.004
   0.10283834  0.10283834  0.10695187       0.002
   0.08300523  0.10210378  0.09358289       0.004
   0.06317212  0.10136922  0.08021390       0.004
   0.04333901  0.10063466  0.06684492       0.004
   0.02350591  0.09990010  0.05347594       0.004
   0.13736264 -0.03452430  0.17379679       0.004
   0.09769642 -0.03599342  0.14705882       0.004
   0.07786331 -0.03672798  0.13368984       0.002
   0.05803021 -0.03746254  0.12032086       0.004
   0.30557678  0.22918258  0.10695187       0.002
   0.28574367  0.22844802  0.09358289       0.004
   0.26591056  0.22771346  0.08021390       0.004
   0.24607745  0.22697890  0.06684492       0.004
   0.22624434  0.22624434  0.05347594       0.002
   0.20641124  0.22550978  0.04010695       0.004
   0.18657813  0.22477522  0.02673797       0.004
   0.30043486  0.09035083  0.14705882       0.004
   0.28060175  0.08961627  0.13368984       0.002
   0.24093554  0.08814715  0.10695187       0.004
   0.22110243  0.08741259  0.09358289       0.004
   0.20126932  0.08667803  0.08021390       0.004
   0.18143621  0.08594347  0.06684492       0.002
   0.16160310  0.08520891  0.05347594       0.004
   0.14176999  0.08447435  0.04010695       0.004
   0.12193689  0.08373979  0.02673797       0.004
   0.10210378  0.08300523  0.01336898       0.004
   0.08227067  0.08227067  0.26737968       0.001
   0.06243756  0.08153611  0.25401070       0.004
   0.02277135  0.08006699  0.22727273       0.004
  -0.01689487  0.07859787  0.20053476       0.004
  -0.03672798  0.07786331  0.18716578       0.004
  -0.05656109  0.07712875  0.17379679       0.004
   0.19098549  0.34377387  0.16042781       0.002
   0.17115238  0.34303931  0.14705882       0.004
   0.15131927  0.34230475  0.13368984       0.002
   0.13148616  0.34157019  0.12032086       0.004
   0.24534289  0.20714580  0.24064171       0.004
   0.20567668  0.20567668  0.21390374       0.002
   0.18584357  0.20494212  0.20053476       0.004
   0.12634424  0.20273844  0.16042781       0.004
   0.10651114  0.20200388  0.14705882       0.004
   0.08667803  0.20126932  0.13368984       0.002
   0.06684492  0.20053476  0.12032086       0.002
   0.04701181  0.19980020  0.10695187       0.004
   0.02717870  0.19906564  0.09358289       0.004
   0.14103544  0.06464124  0.21390374       0.004
   0.12120233  0.06390668  0.20053476       0.004
   0.08153611  0.06243756  0.17379679       0.004
   0.06170300  0.06170300  0.16042781       0.002
   0.04186989  0.06096844  0.14705882       0.004
   0.00220368  0.05949932  0.12032086       0.004
  -0.01762943  0.05876476  0.10695187       0.004
  -0.03746254  0.05803021  0.09358289       0.004
   0.21008403  0.32467532  0.08021390       0.002
   0.32394077  0.19025093  0.20053476       0.002
   0.28427455  0.18878181  0.17379679       0.004
   0.26444144  0.18804725  0.16042781       0.004
   0.22477522  0.18657813  0.13368984       0.002
   0.20494212  0.18584357  0.12032086       0.004
   0.18510901  0.18510901  0.10695187       0.002
   0.12560968  0.18290533  0.06684492       0.004
   0.21963331  0.04774637  0.17379679       0.002
   0.17996709  0.04627725  0.14705882       0.004
   0.16013398  0.04554269  0.13368984       0.002
   0.14030088  0.04480813  0.12032086       0.004
   0.10063466  0.04333901  0.09358289       0.004
   0.08080155  0.04260445  0.08021390       0.004
   0.06096844  0.04186989  0.06684492       0.004
   0.02130223  0.04040078  0.04010695       0.004
   0.11532585 -0.09475818  0.14705882       0.004
   0.36287242  0.17188694  0.13368984       0.001
   0.32320621  0.17041782  0.10695187       0.004
   0.30337310  0.16968326  0.09358289       0.004
   0.28353999  0.16894870  0.08021390       0.004
   0.22404067  0.16674502  0.04010695       0.004
   0.20420756  0.16601046  0.02673797       0.004
   0.16454134  0.16454134  0.26737968       0.001
   0.14470823  0.16380678  0.25401070       0.004
   0.10504202  0.16233766  0.22727273       0.002
   0.06537580  0.16086854  0.20053476       0.004
   0.02570958  0.15939942  0.17379679       0.004
  -0.01395663  0.15793030  0.14705882       0.004
  -0.03378974  0.15719575  0.13368984       0.002
  -0.05362285  0.15646119  0.12032086       0.004
   0.02056767  0.02056767  0.21390374       0.002
   0.00073456  0.01983311  0.20053476       0.004
   0.18878181  0.28427455  0.14705882       0.004
   0.16894870  0.28353999  0.13368984       0.002
   0.12928248  0.28207087  0.10695187       0.004
   0.10944937  0.28133631  0.09358289       0.004
   0.22330611  0.14691191  0.21390374       0.004
   0.16380678  0.14470823  0.17379679       0.004
   0.14397367  0.14397367  0.16042781       0.002
   0.12414057  0.14323911  0.14705882       0.002
   0.08447435  0.14176999  0.12032086       0.004
   0.04480813  0.14030088  0.09358289       0.004
   0.13883176  0.00514192  0.20053476       0.002
   0.09916554  0.00367280  0.17379679       0.004
   0.03966622  0.00146912  0.13368984       0.002
   0.01983311  0.00073456  0.12032086       0.004
   0.26737968  0.26737968  0.10695187       0.001
   0.20788035  0.26517600  0.06684492       0.004
   0.26223776  0.12854792  0.14705882       0.004
   0.24240465  0.12781336  0.13368984       0.002
   0.18290533  0.12560968  0.09358289       0.004
   0.16307222  0.12487512  0.08021390       0.004
   0.14323911  0.12414057  0.06684492       0.002
   0.10357290  0.12267145  0.04010695       0.004
   0.19759652 -0.01248751  0.14705882       0.004
   0.11826409 -0.01542575  0.09358289       0.004
   0.03893166 -0.01836399  0.04010695       0.004
   0.28647823  0.24828113  0.02673797       0.002
   0.38050185  0.11312217  0.13368984       0.001
   0.22697890  0.24607745  0.25401070       0.004
   0.14764647  0.24313921  0.20053476       0.004
   0.06831404  0.24020098  0.14705882       0.004
   0.04848093  0.23946642  0.13368984       0.002
   0.02864782  0.23873186  0.12032086       0.002
   0.10283834  0.10283834  0.21390374       0.002
   0.08300523  0.10210378  0.20053476       0.004
   0.00367280  0.09916554  0.14705882       0.004
  -0.07565963  0.09622730  0.09358289       0.004
   0.30557678  0.22918258  0.21390374       0.002
   0.24607745  0.22697890  0.17379679       0.004
   0.22624434  0.22624434  0.16042781       0.002
   0.16674502  0.22404067  0.12032086       0.004
   0.22110243  0.08741259  0.20053476       0.002
   0.18143621  0.08594347  0.17379679       0.002
   0.12193689  0.08373979  0.13368984       0.002
   0.10210378  0.08300523  0.12032086       0.004
   0.02277135  0.08006699  0.06684492       0.004
   0.07712875 -0.05656109  0.14705882       0.004
   0.32467532  0.21008403  0.13368984       0.001
   0.26517600  0.20788035  0.09358289       0.004
   0.24534289  0.20714580  0.08021390       0.004
   0.18584357  0.20494212  0.04010695       0.004
   0.20053476  0.06684492  0.09358289       0.002
   0.12120233  0.06390668  0.04010695       0.004
   0.06170300  0.06170300  0.26737968       0.001
   0.04186989  0.06096844  0.25401070       0.004
  -0.03746254  0.05803021  0.20053476       0.004
   0.15058471  0.32247165  0.14705882       0.004
   0.13075160  0.32173709  0.13368984       0.002
   0.18510901  0.18510901  0.21390374       0.002
   0.08594347  0.18143621  0.14705882       0.002
   0.00661104  0.17849797  0.09358289       0.004
   0.06096844  0.04186989  0.17379679       0.004
  -0.01836399  0.03893166  0.12032086       0.004
   0.30337310  0.16968326  0.20053476       0.002
   0.20420756  0.16601046  0.13368984       0.002
   0.10504202  0.16233766  0.06684492       0.002
   0.15939942  0.02570958  0.14705882       0.004
   0.08006699  0.02277135  0.09358289       0.004
   0.00073456  0.01983311  0.04010695       0.004
   0.27766351  0.01028383  0.13368984       0.001
   0.12414057  0.14323911  0.25401070       0.002
   0.04480813  0.14030088  0.20053476       0.004
  -0.03452430  0.13736264  0.14705882       0.004
   0.26737968  0.26737968  0.21390374       0.001
   0.14323911  0.12414057  0.17379679       0.002
   0.06390668  0.12120233  0.12032086       0.004
   0.11826409 -0.01542575  0.20053476       0.002
   0.28647823  0.24828113  0.13368984       0.001
   0.16233766  0.10504202  0.09358289       0.002
   0.08300523  0.10210378  0.04010695       0.004
   0.35993418  0.09255450  0.13368984       0.001
   0.04774637  0.21963331  0.14705882       0.002
   0.20053476  0.06684492  0.20053476       0.001
   0.26737968  0.26737968  0.02673797       0.001
   0.36140330  0.13222072  0.13368984       0.002
   0.32173709  0.13075160  0.10695187       0.004
   0.28207087  0.12928248  0.08021390       0.004
   0.10871481  0.26150320  0.18716578       0.004
   0.06904860  0.26003408  0.16042781       0.004
   0.02938238  0.25856496  0.13368984       0.002
   0.12340601  0.12340601  0.24064171       0.002
   0.08373979  0.12193689  0.21390374       0.004
   0.04407357  0.12046777  0.18716578       0.004
   0.00440736  0.11899865  0.16042781       0.004
  -0.03525886  0.11752953  0.13368984       0.002
  -0.07492507  0.11606041  0.10695187       0.004
   0.28647823  0.24828113  0.21390374       0.002
   0.24681201  0.24681201  0.18716578       0.002
   0.20714580  0.24534289  0.16042781       0.004
   0.16747958  0.24387377  0.13368984       0.002
   0.12781336  0.24240465  0.10695187       0.004
   0.08814715  0.24093554  0.08021390       0.004
   0.18217077  0.10577658  0.18716578       0.004
   0.14250455  0.10430746  0.16042781       0.004
   0.10283834  0.10283834  0.13368984       0.001
   0.06317212  0.10136922  0.10695187       0.004
   0.02350591  0.09990010  0.08021390       0.004
   0.11752953 -0.03525886  0.18716578       0.004
   0.07786331 -0.03672798  0.16042781       0.004
   0.30557678  0.22918258  0.13368984       0.001
   0.26591056  0.22771346  0.10695187       0.004
   0.22624434  0.22624434  0.08021390       0.002
   0.18657813  0.22477522  0.05347594       0.004
   0.28060175  0.08961627  0.16042781       0.004
   0.24093554  0.08814715  0.13368984       0.002
   0.20126932  0.08667803  0.10695187       0.004
   0.08227067  0.08227067  0.02673797       0.002
   0.17629429 -0.05288829  0.13368984       0.002
   0.09696186 -0.05582653  0.08021390       0.004
   0.19098549  0.34377387  0.18716578       0.002
   0.11165305  0.34083563  0.13368984       0.002
   0.20567668  0.20567668  0.24064171       0.002
   0.16601046  0.20420756  0.21390374       0.004
   0.12634424  0.20273844  0.18716578       0.004
   0.04701181  0.19980020  0.13368984       0.002
   0.06170300  0.06170300  0.18716578       0.002
  -0.01762943  0.05876476  0.13368984       0.002
   0.21008403  0.32467532  0.10695187       0.002
   0.26444144  0.18804725  0.18716578       0.004
   0.22477522  0.18657813  0.16042781       0.004
   0.18510901  0.18510901  0.13368984       0.001
   0.14544279  0.18363989  0.10695187       0.004
   0.19980020  0.04701181  0.18716578       0.004
   0.16013398  0.04554269  0.16042781       0.004
   0.12046777  0.04407357  0.13368984       0.002
   0.00146912  0.03966622  0.05347594       0.004
   0.36287242  0.17188694  0.16042781       0.002
   0.32320621  0.17041782  0.13368984       0.002
   0.28353999  0.16894870  0.10695187       0.004
   0.16454134  0.16454134  0.02673797       0.002
   0.21889875  0.02791326  0.10695187       0.004
  -0.03378974  0.15719575  0.16042781       0.004
   0.02056767  0.02056767  0.24064171       0.002
   0.20861491  0.28500911  0.18716578       0.004
   0.12928248  0.28207087  0.13368984       0.002
   0.14397367  0.14397367  0.18716578       0.002
   0.06464124  0.14103544  0.13368984       0.002
   0.26737968  0.26737968  0.13368984       0.001
   0.10871481  0.26150320  0.13368984       0.002
   0.16307222  0.12487512  0.21390374       0.004
   0.28647823  0.24828113  0.16042781       0.002
   0.24681201  0.24681201  0.13368984       0.001
   0.18217077  0.10577658  0.13368984       0.002
   0.10283834  0.10283834  0.08021390       0.002
   0.30557678  0.22918258  0.08021390       0.002
   0.22624434  0.22624434  0.02673797       0.002
  -0.01175295  0.21742963  0.13368984       0.002
   0.19098549  0.34377387  0.13368984       0.001
   0.24534289  0.20714580  0.21390374       0.004
   0.06170300  0.06170300  0.13368984       0.001
   0.26444144  0.18804725  0.13368984       0.002
   0.18510901  0.18510901  0.08021390       0.002
   0.07051772  0.29970030  0.13368984       0.002
   0.14397367  0.14397367  0.13368984       0.001
   0.26737968  0.26737968  0.08021390       0.001
   0.15278839  0.38197097  0.13368984       0.001
   0.22624434  0.22624434  0.13368984       0.001
 
 k-points in reciprocal lattice and weights: Server version 2018.05.22. K-point grid 
   0.00000000  0.00000000  0.00000000       0.001
   0.96153846  0.98571429  0.91428571       0.004
   0.92307692  0.97142857  0.82857143       0.004
   0.88461538  0.95714286  0.74285714       0.004
   0.84615385  0.94285714  0.65714286       0.004
   0.80769231  0.92857143  0.57142857       0.004
   0.76923077  0.91428571  0.48571429       0.004
   0.73076923  0.90000000  0.40000000       0.004
   0.69230769  0.88571429  0.31428571       0.004
   0.65384615  0.87142857  0.22857143       0.004
   0.61538462  0.85714286  0.14285714       0.002
   0.57692308  0.84285714  0.05714286       0.004
   0.53846154  0.82857143  0.97142857       0.004
   0.50000000  0.81428571  0.88571429       0.002
   0.46153846  0.80000000  0.80000000       0.002
   0.42307692  0.78571429  0.71428571       0.004
   0.38461538  0.77142857  0.62857143       0.004
   0.34615385  0.75714286  0.54285714       0.004
   0.30769231  0.74285714  0.45714286       0.004
   0.26923077  0.72857143  0.37142857       0.004
   0.23076923  0.71428571  0.28571429       0.002
   0.19230769  0.70000000  0.20000000       0.004
   0.15384615  0.68571429  0.11428571       0.004
   0.11538462  0.67142857  0.02857143       0.004
   0.07692308  0.65714286  0.94285714       0.004
   0.03846154  0.64285714  0.85714286       0.004
   1.00000000  0.62857143  0.77142857       0.002
   0.96153846  0.61428571  0.68571429       0.004
   0.92307692  0.60000000  0.60000000       0.002
   0.88461538  0.58571429  0.51428571       0.004
   0.84615385  0.57142857  0.42857143       0.002
   0.80769231  0.55714286  0.34285714       0.004
   0.76923077  0.54285714  0.25714286       0.004
   0.73076923  0.52857143  0.17142857       0.004
   0.69230769  0.51428571  0.08571429       0.004
   0.65384615  0.50000000  1.00000000       0.002
   0.61538462  0.48571429  0.91428571       0.004
   0.57692308  0.47142857  0.82857143       0.004
   0.53846154  0.45714286  0.74285714       0.004
   0.50000000  0.44285714  0.65714286       0.002
   0.46153846  0.42857143  0.57142857       0.002
   0.42307692  0.41428571  0.48571429       0.004
   0.38461538  0.40000000  0.40000000       0.002
   0.34615385  0.38571429  0.31428571       0.004
   0.30769231  0.37142857  0.22857143       0.004
   0.26923077  0.35714286  0.14285714       0.004
   0.23076923  0.34285714  0.05714286       0.004
   0.19230769  0.32857143  0.97142857       0.004
   0.11538462  0.30000000  0.80000000       0.004
   0.07692308  0.28571429  0.71428571       0.002
   0.03846154  0.27142857  0.62857143       0.004
   1.00000000  0.25714286  0.54285714       0.002
   0.96153846  0.24285714  0.45714286       0.004
   0.92307692  0.22857143  0.37142857       0.004
   0.88461538  0.21428571  0.28571429       0.004
   0.84615385  0.20000000  0.20000000       0.002
   0.80769231  0.18571429  0.11428571       0.004
   0.76923077  0.17142857  0.02857143       0.004
   0.73076923  0.15714286  0.94285714       0.004
   0.69230769  0.14285714  0.85714286       0.002
   0.61538462  0.11428571  0.68571429       0.004
   0.57692308  0.10000000  0.60000000       0.004
   0.53846154  0.08571429  0.51428571       0.004
   0.50000000  0.07142857  0.42857143       0.002
   0.46153846  0.05714286  0.34285714       0.004
   0.42307692  0.04285714  0.25714286       0.004
   0.38461538  0.02857143  0.17142857       0.004
   0.34615385  0.01428571  0.08571429       0.004
   0.30769231  1.00000000  1.00000000       0.001
   0.26923077  0.98571429  0.91428571       0.004
   0.19230769  0.95714286  0.74285714       0.004
   0.11538462  0.92857143  0.57142857       0.004
   0.07692308  0.91428571  0.48571429       0.004
   0.03846154  0.90000000  0.40000000       0.004
   1.00000000  0.88571429  0.31428571       0.002
   0.96153846  0.87142857  0.22857143       0.004
   0.92307692  0.85714286  0.14285714       0.002
   0.88461538  0.84285714  0.05714286       0.004
   0.84615385  0.82857143  0.97142857       0.004
   0.76923077  0.80000000  0.80000000       0.002
   0.73076923  0.78571429  0.71428571       0.004
   0.61538462  0.74285714  0.45714286       0.004
   0.57692308  0.72857143  0.37142857       0.004
   0.53846154  0.71428571  0.28571429       0.002
   0.50000000  0.70000000  0.20000000       0.002
   0.46153846  0.68571429  0.11428571       0.004
   0.42307692  0.67142857  0.02857143       0.004
   0.38461538  0.65714286  0.94285714       0.004
   0.34615385  0.64285714  0.85714286       0.004
   0.26923077  0.61428571  0.68571429       0.004
   0.23076923  0.60000000  0.60000000       0.002
   0.19230769  0.58571429  0.51428571       0.004
   0.11538462  0.55714286  0.34285714       0.004
   0.07692308  0.54285714  0.25714286       0.004
   0.03846154  0.52857143  0.17142857       0.004
   1.00000000  0.51428571  0.08571429       0.002
   0.96153846  0.50000000  1.00000000       0.002
   0.88461538  0.47142857  0.82857143       0.004
   0.84615385  0.45714286  0.74285714       0.004
   0.76923077  0.42857143  0.57142857       0.002
   0.73076923  0.41428571  0.48571429       0.004
   0.69230769  0.40000000  0.40000000       0.002
   0.57692308  0.35714286  0.14285714       0.004
   0.50000000  0.32857143  0.97142857       0.002
   0.42307692  0.30000000  0.80000000       0.004
   0.38461538  0.28571429  0.71428571       0.002
   0.34615385  0.27142857  0.62857143       0.004
   0.26923077  0.24285714  0.45714286       0.004
   0.23076923  0.22857143  0.37142857       0.004
   0.19230769  0.21428571  0.28571429       0.004
   0.11538462  0.18571429  0.11428571       0.004
   0.03846154  0.15714286  0.94285714       0.004
   1.00000000  0.14285714  0.85714286       0.001
   0.92307692  0.11428571  0.68571429       0.004
   0.88461538  0.10000000  0.60000000       0.004
   0.84615385  0.08571429  0.51428571       0.004
   0.73076923  0.04285714  0.25714286       0.004
   0.69230769  0.02857143  0.17142857       0.004
   0.61538462  1.00000000  1.00000000       0.001
   0.57692308  0.98571429  0.91428571       0.004
   0.50000000  0.95714286  0.74285714       0.002
   0.42307692  0.92857143  0.57142857       0.004
   0.34615385  0.90000000  0.40000000       0.004
   0.26923077  0.87142857  0.22857143       0.004
   0.23076923  0.85714286  0.14285714       0.002
   0.19230769  0.84285714  0.05714286       0.004
   0.07692308  0.80000000  0.80000000       0.002
   0.03846154  0.78571429  0.71428571       0.004
   0.88461538  0.72857143  0.37142857       0.004
   0.84615385  0.71428571  0.28571429       0.002
   0.76923077  0.68571429  0.11428571       0.004
   0.73076923  0.67142857  0.02857143       0.004
   0.69230769  0.65714286  0.94285714       0.004
   0.57692308  0.61428571  0.68571429       0.004
   0.53846154  0.60000000  0.60000000       0.002
   0.50000000  0.58571429  0.51428571       0.002
   0.42307692  0.55714286  0.34285714       0.004
   0.34615385  0.52857143  0.17142857       0.004
   0.26923077  0.50000000  1.00000000       0.002
   0.19230769  0.47142857  0.82857143       0.004
   0.07692308  0.42857143  0.57142857       0.002
   0.03846154  0.41428571  0.48571429       0.004
   1.00000000  0.40000000  0.40000000       0.001
   0.88461538  0.35714286  0.14285714       0.004
   0.73076923  0.30000000  0.80000000       0.004
   0.69230769  0.28571429  0.71428571       0.002
   0.57692308  0.24285714  0.45714286       0.004
   0.53846154  0.22857143  0.37142857       0.004
   0.50000000  0.21428571  0.28571429       0.002
   0.42307692  0.18571429  0.11428571       0.004
   0.34615385  0.15714286  0.94285714       0.004
   0.19230769  0.10000000  0.60000000       0.004
   0.03846154  0.04285714  0.25714286       0.004
   1.00000000  0.02857143  0.17142857       0.002
   0.92307692  0.00000000  1.00000000       0.001
   0.88461538  0.98571429  0.91428571       0.004
   0.73076923  0.92857143  0.57142857       0.004
   0.57692308  0.87142857  0.22857143       0.004
   0.53846154  0.85714286  0.14285714       0.002
   0.50000000  0.84285714  0.05714286       0.002
   0.38461538  0.80000000  0.80000000       0.002
   0.34615385  0.78571429  0.71428571       0.004
   0.19230769  0.72857143  0.37142857       0.004
   0.03846154  0.67142857  0.02857143       0.004
   1.00000000  0.65714286  0.94285714       0.002
   0.88461538  0.61428571  0.68571429       0.004
   0.84615385  0.60000000  0.60000000       0.002
   0.73076923  0.55714286  0.34285714       0.004
   0.57692308  0.50000000  1.00000000       0.002
   0.50000000  0.47142857  0.82857143       0.002
   0.38461538  0.42857143  0.57142857       0.002
   0.34615385  0.41428571  0.48571429       0.004
   0.19230769  0.35714286  0.14285714       0.004
   0.03846154  0.30000000  0.80000000       0.004
   1.00000000  0.28571429  0.71428571       0.001
   0.88461538  0.24285714  0.45714286       0.004
   0.84615385  0.22857143  0.37142857       0.004
   0.73076923  0.18571429  0.11428571       0.004
   0.50000000  0.10000000  0.60000000       0.002
   0.34615385  0.04285714  0.25714286       0.004
   0.23076923  1.00000000  1.00000000       0.001
   0.19230769  0.98571429  0.91428571       0.004
   0.03846154  0.92857143  0.57142857       0.004
   0.88461538  0.87142857  0.22857143       0.004
   0.84615385  0.85714286  0.14285714       0.002
   0.69230769  0.80000000  0.80000000       0.002
   0.50000000  0.72857143  0.37142857       0.002
   0.34615385  0.67142857  0.02857143       0.004
   0.19230769  0.61428571  0.68571429       0.004
   0.03846154  0.55714286  0.34285714       0.004
   0.88461538  0.50000000  1.00000000       0.002
   0.69230769  0.42857143  0.57142857       0.002
   0.50000000  0.35714286  0.14285714       0.002
   0.34615385  0.30000000  0.80000000       0.004
   0.19230769  0.24285714  0.45714286       0.004
   0.03846154  0.18571429  0.11428571       0.004
   0.53846154  0.00000000  1.00000000       0.001
   0.50000000  0.98571429  0.91428571       0.002
   0.34615385  0.92857143  0.57142857       0.004
   0.19230769  0.87142857  0.22857143       0.004
   1.00000000  0.80000000  0.80000000       0.001
   0.50000000  0.61428571  0.68571429       0.002
   0.34615385  0.55714286  0.34285714       0.004
   0.19230769  0.50000000  1.00000000       0.002
   1.00000000  0.42857143  0.57142857       0.001
   0.50000000  0.24285714  0.45714286       0.002
   0.34615385  0.18571429  0.11428571       0.004
   0.84615385  0.00000000  1.00000000       0.001
   0.50000000  0.87142857  0.22857143       0.002
   0.50000000  0.50000000  1.00000000       0.001
   1.00000000  0.10000000  0.10000000       0.001
   0.92307692  0.07142857  0.92857143       0.002
   0.84615385  0.04285714  0.75714286       0.004
   0.76923077  0.01428571  0.58571429       0.004
   0.69230769  0.98571429  0.41428571       0.004
   0.61538462  0.95714286  0.24285714       0.004
   0.53846154  0.92857143  0.07142857       0.002
   0.46153846  0.90000000  0.90000000       0.002
   0.38461538  0.87142857  0.72857143       0.004
   0.30769231  0.84285714  0.55714286       0.004
   0.23076923  0.81428571  0.38571429       0.004
   0.15384615  0.78571429  0.21428571       0.002
   0.07692308  0.75714286  0.04285714       0.004
   1.00000000  0.72857143  0.87142857       0.002
   0.92307692  0.70000000  0.70000000       0.002
   0.84615385  0.67142857  0.52857143       0.004
   0.76923077  0.64285714  0.35714286       0.002
   0.69230769  0.61428571  0.18571429       0.004
   0.61538462  0.58571429  0.01428571       0.004
   0.53846154  0.55714286  0.84285714       0.004
   0.46153846  0.52857143  0.67142857       0.004
   0.38461538  0.50000000  0.50000000       0.001
   0.30769231  0.47142857  0.32857143       0.004
   0.23076923  0.44285714  0.15714286       0.004
   0.15384615  0.41428571  0.98571429       0.004
   0.07692308  0.38571429  0.81428571       0.004
   1.00000000  0.35714286  0.64285714       0.001
   0.92307692  0.32857143  0.47142857       0.004
   0.84615385  0.30000000  0.30000000       0.002
   0.76923077  0.27142857  0.12857143       0.004
   0.69230769  0.24285714  0.95714286       0.004
   0.61538462  0.21428571  0.78571429       0.002
   0.53846154  0.18571429  0.61428571       0.004
   0.30769231  0.10000000  0.10000000       0.002
   0.23076923  0.07142857  0.92857143       0.002
   0.07692308  0.01428571  0.58571429       0.004
   1.00000000  0.98571429  0.41428571       0.002
   0.84615385  0.92857143  0.07142857       0.002
   0.76923077  0.90000000  0.90000000       0.002
   0.69230769  0.87142857  0.72857143       0.004
   0.61538462  0.84285714  0.55714286       0.004
   0.46153846  0.78571429  0.21428571       0.002
   0.23076923  0.70000000  0.70000000       0.002
   0.07692308  0.64285714  0.35714286       0.002
   1.00000000  0.61428571  0.18571429       0.002
   0.84615385  0.55714286  0.84285714       0.004
   0.76923077  0.52857143  0.67142857       0.004
   0.69230769  0.50000000  0.50000000       0.001
   0.61538462  0.47142857  0.32857143       0.004
   0.46153846  0.41428571  0.98571429       0.004
   0.38461538  0.38571429  0.81428571       0.004
   0.30769231  0.35714286  0.64285714       0.002
   0.07692308  0.27142857  0.12857143       0.004
   1.00000000  0.24285714  0.95714286       0.002
   0.92307692  0.21428571  0.78571429       0.002
   0.84615385  0.18571429  0.61428571       0.004
   0.61538462  0.10000000  0.10000000       0.002
   0.46153846  0.04285714  0.75714286       0.004
   0.23076923  0.95714286  0.24285714       0.004
   0.07692308  0.90000000  0.90000000       0.002
   0.92307692  0.84285714  0.55714286       0.004
   0.76923077  0.78571429  0.21428571       0.002
   0.53846154  0.70000000  0.70000000       0.002
   0.38461538  0.64285714  0.35714286       0.002
   1.00000000  0.50000000  0.50000000       0.001
   0.69230769  0.78571429  0.21428571       0.002
   0.53846154  0.72857143  0.87142857       0.004
   1.00000000  0.52857143  0.67142857       0.002
   0.92307692  0.50000000  0.50000000       0.001
   0.53846154  0.35714286  0.64285714       0.002
   0.38461538  0.30000000  0.30000000       0.002
   1.00000000  0.15714286  0.44285714       0.002
   0.84615385  0.10000000  0.10000000       0.002
   0.38461538  0.92857143  0.07142857       0.002
   1.00000000  0.78571429  0.21428571       0.001
   0.84615385  0.72857143  0.87142857       0.004
   0.23076923  0.50000000  0.50000000       0.001
   0.84615385  0.35714286  0.64285714       0.002
   0.69230769  0.30000000  0.30000000       0.002
   0.69230769  0.92857143  0.07142857       0.002
   0.53846154  0.50000000  0.50000000       0.001
   1.00000000  0.30000000  0.30000000       0.001
   1.00000000  0.92857143  0.07142857       0.001
   0.84615385  0.50000000  0.50000000       0.001
 
 position of ions in fractional coordinates (direct lattice) 
   0.00000000  0.00000000  0.00000000
   0.50000000  0.50000000  0.00000000
   0.50000000  0.00000000  0.50000000
   0.00000000  0.50000000  0.50000000
 
 position of ions in cartesian coordinates  (Angst):
   0.00000000  0.00000000  0.00000000
   0.00000000  1.87000000  1.87000000
   1.87000000  0.00000000  1.87000000
   0.00000000  0.00000000  3.74000000
 


--------------------------------------------------------------------------------------------------------


 k-point  1 :   0.0000 0.0000 0.0000  plane waves:     529
 k-point  2 :   0.9615 0.9857 0.9143  plane waves:     519
 k-point  3 :   0.9231 0.9714 0.8286  plane waves:     516
 k-point  4 :   0.8846 0.9571 0.7429  plane waves:     522
 k-point  5 :   0.8462 0.9429 0.6571  plane waves:     525
 k-point  6 :   0.8077 0.9286 0.5714  plane waves:     528
 k-point  7 :   0.7692 0.9143 0.4857  plane waves:     524
 k-point  8 :   0.7308 0.9000 0.4000  plane waves:     520
 k-point  9 :   0.6923 0.8857 0.3143  plane waves:     518
 k-point 10 :   0.6538 0.8714 0.2286  plane waves:     519
 k-point 11 :   0.6154 0.8571 0.1429  plane waves:     517
 k-point 12 :   0.5769 0.8429 0.0571  plane waves:     514
 k-point 13 :   0.5385 0.8286 0.9714  plane waves:     520
 k-point 14 :   0.5000 0.8143 0.8857  plane waves:     516
 k-point 15 :   0.4615 0.8000 0.8000  plane waves:     512
 k-point 16 :   0.4231 0.7857 0.7143  plane waves:     515
 k-point 17 :   0.3846 0.7714 0.6286  plane waves:     522
 k-point 18 :   0.3462 0.7571 0.5429  plane waves:     520
 k-point 19 :   0.3077 0.7429 0.4571  plane waves:     522
 k-point 20 :   0.2692 0.7286 0.3714  plane waves:     524
 k-point 21 :   0.2308 0.7143 0.2857  plane waves:     524
 k-point 22 :   0.1923 0.7000 0.2000  plane waves:     524
 k-point 23 :   0.1538 0.6857 0.1143  plane waves:     526
 k-point 24 :   0.1154 0.6714 0.0286  plane waves:     527
 k-point 25 :   0.0769 0.6571 0.9429  plane waves:     528
 k-point 26 :   0.0385 0.6429 0.8571  plane waves:     523
 k-point 27 :   1.0000 0.6286 0.7714  plane waves:     523
 k-point 28 :   0.9615 0.6143 0.6857  plane waves:     522
 k-point 29 :   0.9231 0.6000 0.6000  plane waves:     531
 k-point 30 :   0.8846 0.5857 0.5143  plane waves:     525
 k-point 31 :   0.8462 0.5714 0.4286  plane waves:     529
 k-point 32 :   0.8077 0.5571 0.3429  plane waves:     526
 k-point 33 :   0.7692 0.5429 0.2571  plane waves:     525
 k-point 34 :   0.7308 0.5286 0.1714  plane waves:     524
 k-point 35 :   0.6923 0.5143 0.0857  plane waves:     520
 k-point 36 :   0.6538 0.5000 1.0000  plane waves:     522
 k-point 37 :   0.6154 0.4857 0.9143  plane waves:     517
 k-point 38 :   0.5769 0.4714 0.8286  plane waves:     515
 k-point 39 :   0.5385 0.4571 0.7429  plane waves:     513
 k-point 40 :   0.5000 0.4429 0.6571  plane waves:     510
 k-point 41 :   0.4615 0.4286 0.5714  plane waves:     502
 k-point 42 :   0.4231 0.4143 0.4857  plane waves:     508
 k-point 43 :   0.3846 0.4000 0.4000  plane waves:     513
 k-point 44 :   0.3462 0.3857 0.3143  plane waves:     524
 k-point 45 :   0.3077 0.3714 0.2286  plane waves:     522
 k-point 46 :   0.2692 0.3571 0.1429  plane waves:     521
 k-point 47 :   0.2308 0.3429 0.0571  plane waves:     523
 k-point 48 :   0.1923 0.3286 0.9714  plane waves:     523
 k-point 49 :   0.1154 0.3000 0.8000  plane waves:     528
 k-point 50 :   0.0769 0.2857 0.7143  plane waves:     535
 k-point 51 :   0.0385 0.2714 0.6286  plane waves:     534
 k-point 52 :   1.0000 0.2571 0.5429  plane waves:     531
 k-point 53 :   0.9615 0.2429 0.4571  plane waves:     529
 k-point 54 :   0.9231 0.2286 0.3714  plane waves:     526
 k-point 55 :   0.8846 0.2143 0.2857  plane waves:     524
 k-point 56 :   0.8462 0.2000 0.2000  plane waves:     521
 k-point 57 :   0.8077 0.1857 0.1143  plane waves:     518
 k-point 58 :   0.7692 0.1714 0.0286  plane waves:     519
 k-point 59 :   0.7308 0.1571 0.9429  plane waves:     522
 k-point 60 :   0.6923 0.1429 0.8571  plane waves:     520
 k-point 61 :   0.6154 0.1143 0.6857  plane waves:     517
 k-point 62 :   0.5769 0.1000 0.6000  plane waves:     514
 k-point 63 :   0.5385 0.0857 0.5143  plane waves:     511
 k-point 64 :   0.5000 0.0714 0.4286  plane waves:     514
 k-point 65 :   0.4615 0.0571 0.3429  plane waves:     515
 k-point 66 :   0.4231 0.0429 0.2571  plane waves:     516
 k-point 67 :   0.3846 0.0286 0.1714  plane waves:     515
 k-point 68 :   0.3462 0.0143 0.0857  plane waves:     514
 k-point 69 :   0.3077 1.0000 1.0000  plane waves:     511
 k-point 70 :   0.2692 0.9857 0.9143  plane waves:     520
 k-point 71 :   0.1923 0.9571 0.7429  plane waves:     521
 k-point 72 :   0.1154 0.9286 0.5714  plane waves:     525
 k-point 73 :   0.0769 0.9143 0.4857  plane waves:     530
 k-point 74 :   0.0385 0.9000 0.4000  plane waves:     529
 k-point 75 :   1.0000 0.8857 0.3143  plane waves:     530
 k-point 76 :   0.9615 0.8714 0.2286  plane waves:     526
 k-point 77 :   0.9231 0.8571 0.1429  plane waves:     523
 k-point 78 :   0.8846 0.8429 0.0571  plane waves:     519
 k-point 79 :   0.8462 0.8286 0.9714  plane waves:     518
 k-point 80 :   0.7692 0.8000 0.8000  plane waves:     520
 k-point 81 :   0.7308 0.7857 0.7143  plane waves:     524
 k-point 82 :   0.6154 0.7429 0.4571  plane waves:     518
 k-point 83 :   0.5769 0.7286 0.3714  plane waves:     513
 k-point 84 :   0.5385 0.7143 0.2857  plane waves:     509
 k-point 85 :   0.5000 0.7000 0.2000  plane waves:     508
 k-point 86 :   0.4615 0.6857 0.1143  plane waves:     515
 k-point 87 :   0.4231 0.6714 0.0286  plane waves:     520
 k-point 88 :   0.3846 0.6571 0.9429  plane waves:     517
 k-point 89 :   0.3462 0.6429 0.8571  plane waves:     520
 k-point 90 :   0.2692 0.6143 0.6857  plane waves:     522
 k-point 91 :   0.2308 0.6000 0.6000  plane waves:     528
 k-point 92 :   0.1923 0.5857 0.5143  plane waves:     527
 k-point 93 :   0.1154 0.5571 0.3429  plane waves:     534
 k-point 94 :   0.0769 0.5429 0.2571  plane waves:     531
 k-point 95 :   0.0385 0.5286 0.1714  plane waves:     531
 k-point 96 :   1.0000 0.5143 0.0857  plane waves:     530
 k-point 97 :   0.9615 0.5000 1.0000  plane waves:     532
 k-point 98 :   0.8846 0.4714 0.8286  plane waves:     526
 k-point 99 :   0.8462 0.4571 0.7429  plane waves:     529
 k-point ** :   0.7692 0.4286 0.5714  plane waves:     524
 k-point ** :   0.7308 0.4143 0.4857  plane waves:     524
 k-point ** :   0.6923 0.4000 0.4000  plane waves:     526
 k-point ** :   0.5769 0.3571 0.1429  plane waves:     518
 k-point ** :   0.5000 0.3286 0.9714  plane waves:     514
 k-point ** :   0.4231 0.3000 0.8000  plane waves:     515
 k-point ** :   0.3846 0.2857 0.7143  plane waves:     516
 k-point ** :   0.3462 0.2714 0.6286  plane waves:     518
 k-point ** :   0.2692 0.2429 0.4571  plane waves:     525
 k-point ** :   0.2308 0.2286 0.3714  plane waves:     525
 k-point ** :   0.1923 0.2143 0.2857  plane waves:     522
 k-point ** :   0.1154 0.1857 0.1143  plane waves:     519
 k-point ** :   0.0385 0.1571 0.9429  plane waves:     517
 k-point ** :   1.0000 0.1429 0.8571  plane waves:     523
 k-point ** :   0.9231 0.1143 0.6857  plane waves:     528
 k-point ** :   0.8846 0.1000 0.6000  plane waves:     528
 k-point ** :   0.8462 0.0857 0.5143  plane waves:     529
 k-point ** :   0.7308 0.0429 0.2571  plane waves:     520
 k-point ** :   0.6923 0.0286 0.1714  plane waves:     518
 k-point ** :   0.6154 1.0000 1.0000  plane waves:     515
 k-point ** :   0.5769 0.9857 0.9143  plane waves:     519
 k-point ** :   0.5000 0.9571 0.7429  plane waves:     518
 k-point ** :   0.4231 0.9286 0.5714  plane waves:     516
 k-point ** :   0.3462 0.9000 0.4000  plane waves:     518
 k-point ** :   0.2692 0.8714 0.2286  plane waves:     519
 k-point ** :   0.2308 0.8571 0.1429  plane waves:     522
 k-point ** :   0.1923 0.8429 0.0571  plane waves:     521
 k-point ** :   0.0769 0.8000 0.8000  plane waves:     519
 k-point ** :   0.0385 0.7857 0.7143  plane waves:     524
 k-point ** :   0.8846 0.7286 0.3714  plane waves:     530
 k-point ** :   0.8462 0.7143 0.2857  plane waves:     526
 k-point ** :   0.7692 0.6857 0.1143  plane waves:     521
 k-point ** :   0.7308 0.6714 0.0286  plane waves:     516
 k-point ** :   0.6923 0.6571 0.9429  plane waves:     519
 k-point ** :   0.5769 0.6143 0.6857  plane waves:     512
 k-point ** :   0.5385 0.6000 0.6000  plane waves:     500
 k-point ** :   0.5000 0.5857 0.5143  plane waves:     502
 k-point ** :   0.4231 0.5571 0.3429  plane waves:     514
 k-point ** :   0.3462 0.5286 0.1714  plane waves:     519
 k-point ** :   0.2692 0.5000 1.0000  plane waves:     522
 k-point ** :   0.1923 0.4714 0.8286  plane waves:     527
 k-point ** :   0.0769 0.4286 0.5714  plane waves:     529
 k-point ** :   0.0385 0.4143 0.4857  plane waves:     527
 k-point ** :   1.0000 0.4000 0.4000  plane waves:     528
 k-point ** :   0.8846 0.3571 0.1429  plane waves:     526
 k-point ** :   0.7308 0.3000 0.8000  plane waves:     523
 k-point ** :   0.6923 0.2857 0.7143  plane waves:     517
 k-point ** :   0.5769 0.2429 0.4571  plane waves:     515
 k-point ** :   0.5385 0.2286 0.3714  plane waves:     516
 k-point ** :   0.5000 0.2143 0.2857  plane waves:     508
 k-point ** :   0.4231 0.1857 0.1143  plane waves:     517
 k-point ** :   0.3462 0.1571 0.9429  plane waves:     520
 k-point ** :   0.1923 0.1000 0.6000  plane waves:     527
 k-point ** :   0.0385 0.0429 0.2571  plane waves:     525
 k-point ** :   1.0000 0.0286 0.1714  plane waves:     516
 k-point ** :   0.9231 0.0000 1.0000  plane waves:     517
 k-point ** :   0.8846 0.9857 0.9143  plane waves:     516
 k-point ** :   0.7308 0.9286 0.5714  plane waves:     522
 k-point ** :   0.5769 0.8714 0.2286  plane waves:     516
 k-point ** :   0.5385 0.8571 0.1429  plane waves:     509
 k-point ** :   0.5000 0.8429 0.0571  plane waves:     510
 k-point ** :   0.3846 0.8000 0.8000  plane waves:     513
 k-point ** :   0.3462 0.7857 0.7143  plane waves:     519
 k-point ** :   0.1923 0.7286 0.3714  plane waves:     526
 k-point ** :   0.0385 0.6714 0.0286  plane waves:     530
 k-point ** :   1.0000 0.6571 0.9429  plane waves:     523
 k-point ** :   0.8846 0.6143 0.6857  plane waves:     529
 k-point ** :   0.8462 0.6000 0.6000  plane waves:     528
 k-point ** :   0.7308 0.5571 0.3429  plane waves:     522
 k-point ** :   0.5769 0.5000 1.0000  plane waves:     516
 k-point ** :   0.5000 0.4714 0.8286  plane waves:     514
 k-point ** :   0.3846 0.4286 0.5714  plane waves:     516
 k-point ** :   0.3462 0.4143 0.4857  plane waves:     519
 k-point ** :   0.1923 0.3571 0.1429  plane waves:     527
 k-point ** :   0.0385 0.3000 0.8000  plane waves:     533
 k-point ** :   1.0000 0.2857 0.7143  plane waves:     535
 k-point ** :   0.8846 0.2429 0.4571  plane waves:     530
 k-point ** :   0.8462 0.2286 0.3714  plane waves:     525
 k-point ** :   0.7308 0.1857 0.1143  plane waves:     519
 k-point ** :   0.5000 0.1000 0.6000  plane waves:     512
 k-point ** :   0.3462 0.0429 0.2571  plane waves:     517
 k-point ** :   0.2308 1.0000 1.0000  plane waves:     521
 k-point ** :   0.1923 0.9857 0.9143  plane waves:     517
 k-point ** :   0.0385 0.9286 0.5714  plane waves:     528
 k-point ** :   0.8846 0.8714 0.2286  plane waves:     525
 k-point ** :   0.8462 0.8571 0.1429  plane waves:     515
 k-point ** :   0.6923 0.8000 0.8000  plane waves:     521
 k-point ** :   0.5000 0.7286 0.3714  plane waves:     514
 k-point ** :   0.3462 0.6714 0.0286  plane waves:     515
 k-point ** :   0.1923 0.6143 0.6857  plane waves:     526
 k-point ** :   0.0385 0.5571 0.3429  plane waves:     530
 k-point ** :   0.8846 0.5000 1.0000  plane waves:     528
 k-point ** :   0.6923 0.4286 0.5714  plane waves:     524
 k-point ** :   0.5000 0.3571 0.1429  plane waves:     518
 k-point ** :   0.3462 0.3000 0.8000  plane waves:     519
 k-point ** :   0.1923 0.2429 0.4571  plane waves:     528
 k-point ** :   0.0385 0.1857 0.1143  plane waves:     513
 k-point ** :   0.5385 0.0000 1.0000  plane waves:     511
 k-point ** :   0.5000 0.9857 0.9143  plane waves:     512
 k-point ** :   0.3462 0.9286 0.5714  plane waves:     518
 k-point ** :   0.1923 0.8714 0.2286  plane waves:     521
 k-point ** :   1.0000 0.8000 0.8000  plane waves:     520
 k-point ** :   0.5000 0.6143 0.6857  plane waves:     508
 k-point ** :   0.3462 0.5571 0.3429  plane waves:     516
 k-point ** :   0.1923 0.5000 1.0000  plane waves:     528
 k-point ** :   1.0000 0.4286 0.5714  plane waves:     529
 k-point ** :   0.5000 0.2429 0.4571  plane waves:     514
 k-point ** :   0.3462 0.1857 0.1143  plane waves:     518
 k-point ** :   0.8462 0.0000 1.0000  plane waves:     523
 k-point ** :   0.5000 0.8714 0.2286  plane waves:     514
 k-point ** :   0.5000 0.5000 1.0000  plane waves:     520
 k-point ** :   1.0000 0.1000 0.1000  plane waves:     518
 k-point ** :   0.9231 0.0714 0.9286  plane waves:     511
 k-point ** :   0.8462 0.0429 0.7571  plane waves:     523
 k-point ** :   0.7692 0.0143 0.5857  plane waves:     524
 k-point ** :   0.6923 0.9857 0.4143  plane waves:     518
 k-point ** :   0.6154 0.9571 0.2429  plane waves:     515
 k-point ** :   0.5385 0.9286 0.0714  plane waves:     515
 k-point ** :   0.4615 0.9000 0.9000  plane waves:     516
 k-point ** :   0.3846 0.8714 0.7286  plane waves:     517
 k-point ** :   0.3077 0.8429 0.5571  plane waves:     522
 k-point ** :   0.2308 0.8143 0.3857  plane waves:     523
 k-point ** :   0.1538 0.7857 0.2143  plane waves:     522
 k-point ** :   0.0769 0.7571 0.0429  plane waves:     521
 k-point ** :   1.0000 0.7286 0.8714  plane waves:     519
 k-point ** :   0.9231 0.7000 0.7000  plane waves:     525
 k-point ** :   0.8462 0.6714 0.5286  plane waves:     532
 k-point ** :   0.7692 0.6429 0.3571  plane waves:     527
 k-point ** :   0.6923 0.6143 0.1857  plane waves:     519
 k-point ** :   0.6154 0.5857 0.0143  plane waves:     522
 k-point ** :   0.5385 0.5571 0.8429  plane waves:     517
 k-point ** :   0.4615 0.5286 0.6714  plane waves:     507
 k-point ** :   0.3846 0.5000 0.5000  plane waves:     512
 k-point ** :   0.3077 0.4714 0.3286  plane waves:     525
 k-point ** :   0.2308 0.4429 0.1571  plane waves:     525
 k-point ** :   0.1538 0.4143 0.9857  plane waves:     531
 k-point ** :   0.0769 0.3857 0.8143  plane waves:     532
 k-point ** :   1.0000 0.3571 0.6429  plane waves:     535
 k-point ** :   0.9231 0.3286 0.4714  plane waves:     532
 k-point ** :   0.8462 0.3000 0.3000  plane waves:     524
 k-point ** :   0.7692 0.2714 0.1286  plane waves:     521
 k-point ** :   0.6923 0.2429 0.9571  plane waves:     517
 k-point ** :   0.6154 0.2143 0.7857  plane waves:     517
 k-point ** :   0.5385 0.1857 0.6143  plane waves:     512
 k-point ** :   0.3077 0.1000 0.1000  plane waves:     514
 k-point ** :   0.2308 0.0714 0.9286  plane waves:     520
 k-point ** :   0.0769 0.0143 0.5857  plane waves:     527
 k-point ** :   1.0000 0.9857 0.4143  plane waves:     526
 k-point ** :   0.8462 0.9286 0.0714  plane waves:     516
 k-point ** :   0.7692 0.9000 0.9000  plane waves:     516
 k-point ** :   0.6923 0.8714 0.7286  plane waves:     519
 k-point ** :   0.6154 0.8429 0.5571  plane waves:     517
 k-point ** :   0.4615 0.7857 0.2143  plane waves:     507
 k-point ** :   0.2308 0.7000 0.7000  plane waves:     526
 k-point ** :   0.0769 0.6429 0.3571  plane waves:     533
 k-point ** :   1.0000 0.6143 0.1857  plane waves:     536
 k-point ** :   0.8462 0.5571 0.8429  plane waves:     527
 k-point ** :   0.7692 0.5286 0.6714  plane waves:     528
 k-point ** :   0.6923 0.5000 0.5000  plane waves:     526
 k-point ** :   0.6154 0.4714 0.3286  plane waves:     516
 k-point ** :   0.4615 0.4143 0.9857  plane waves:     517
 k-point ** :   0.3846 0.3857 0.8143  plane waves:     515
 k-point ** :   0.3077 0.3571 0.6429  plane waves:     522
 k-point ** :   0.0769 0.2714 0.1286  plane waves:     522
 k-point ** :   1.0000 0.2429 0.9571  plane waves:     528
 k-point ** :   0.9231 0.2143 0.7857  plane waves:     528
 k-point ** :   0.8462 0.1857 0.6143  plane waves:     527
 k-point ** :   0.6154 0.1000 0.1000  plane waves:     513
 k-point ** :   0.4615 0.0429 0.7571  plane waves:     513
 k-point ** :   0.2308 0.9571 0.2429  plane waves:     521
 k-point ** :   0.0769 0.9000 0.9000  plane waves:     519
 k-point ** :   0.9231 0.8429 0.5571  plane waves:     525
 k-point ** :   0.7692 0.7857 0.2143  plane waves:     521
 k-point ** :   0.5385 0.7000 0.7000  plane waves:     508
 k-point ** :   0.3846 0.6429 0.3571  plane waves:     514
 k-point ** :   1.0000 0.5000 0.5000  plane waves:     534
 k-point ** :   0.6923 0.7857 0.2143  plane waves:     522
 k-point ** :   0.5385 0.7286 0.8714  plane waves:     518
 k-point ** :   1.0000 0.5286 0.6714  plane waves:     530
 k-point ** :   0.9231 0.5000 0.5000  plane waves:     524
 k-point ** :   0.5385 0.3571 0.6429  plane waves:     512
 k-point ** :   0.3846 0.3000 0.3000  plane waves:     523
 k-point ** :   1.0000 0.1571 0.4429  plane waves:     527
 k-point ** :   0.8462 0.1000 0.1000  plane waves:     520
 k-point ** :   0.3846 0.9286 0.0714  plane waves:     518
 k-point ** :   1.0000 0.7857 0.2143  plane waves:     529
 k-point ** :   0.8462 0.7286 0.8714  plane waves:     520
 k-point ** :   0.2308 0.5000 0.5000  plane waves:     526
 k-point ** :   0.8462 0.3571 0.6429  plane waves:     529
 k-point ** :   0.6923 0.3000 0.3000  plane waves:     522
 k-point ** :   0.6923 0.9286 0.0714  plane waves:     521
 k-point ** :   0.5385 0.5000 0.5000  plane waves:     502
 k-point ** :   1.0000 0.3000 0.3000  plane waves:     520
 k-point ** :   1.0000 0.9286 0.0714  plane waves:     519
 k-point ** :   0.8462 0.5000 0.5000  plane waves:     532

 maximum and minimum number of plane-waves per node :       536      500

 maximum number of plane-waves:       536
 maximum index in each direction: 
   IXMAX=    3   IYMAX=    6   IZMAX=    6
   IXMIN=   -4   IYMIN=   -7   IZMIN=   -7


 serial   3D FFT for wavefunctions
 parallel 3D FFT for charge:
    minimum data exchange during FFTs selected (reduces bandwidth)


 total amount of memory used by VASP MPI-rank0   127568. kBytes
=======================================================================

   base      :      30000. kBytes
   nonl-proj :      45418. kBytes
   fftplans  :       2280. kBytes
   grid      :       4048. kBytes
   one-center:         62. kBytes
   wavefun   :      45760. kBytes
 
     INWAV:  cpu time    0.0000: real time    0.0002
 Broyden mixing: mesh for mixing (old mesh)
   NGX =  7   NGY = 13   NGZ = 13
  (NGX  = 28   NGY  = 48   NGZ  = 48)
  gives a total of   1183 points

 initial charge density was supplied:
 charge density of overlapping atoms calculated
 number of electron      24.0000000 magnetization 
 keeping initial charge density in first step


--------------------------------------------------------------------------------------------------------


 Maximum index for augmentation-charges         9095 (set IRDMAX)


--------------------------------------------------------------------------------------------------------


 First call to EWALD:  gamma=   0.474
 Maximum number of real-space cells 4x 2x 2
 Maximum number of reciprocal cells 2x 3x 3

    FEWALD:  cpu time    0.0070: real time    0.0069


--------------------------------------- Iteration      1(   1)  ---------------------------------------


    POTLOK:  cpu time    0.1650: real time    0.1671
    SETDIJ:  cpu time    0.0760: real time    0.0755
     EDDAV:  cpu time   23.6884: real time   23.7822
       DOS:  cpu time    0.1210: real time    0.1229
    --------------------------------------------
      LOOP:  cpu time   24.0503: real time   24.1477

 eigenvalue-minimisations  :  9432
 total energy-change (2. order) : 0.1018941E+03  (-0.5660724E+03)
 number of electron      24.0000000 magnetization 
 augmentation part       24.0000000 magnetization 

 Free energy of the ion-electron system (eV)
  ---------------------------------------------------
  alpha Z        PSCENC =       106.91483610
  Ewald energy   TEWEN  =     -1315.26994955
  -Hartree energ DENC   =      -282.68390073
  -exchange      EXHF   =         0.00000000
  -V(xc)+E(xc)   XCENC  =      -121.65354400
  PAW double counting   =      1339.80839389    -1244.94305992
  entropy T*S    EENTRO =         0.00132234
  eigenvalues    EBANDS =       293.80567024
  atomic energy  EATOM  =      1325.91434243
  Solvation  Ediel_sol  =         0.00000000
  ---------------------------------------------------
  free energy    TOTEN  =       101.89411081 eV

  energy without entropy =      101.89278847  energy(sigma->0) =      101.89367003


--------------------------------------------------------------------------------------------------------




--------------------------------------- Iteration      1(   2)  ---------------------------------------


     EDDAV:  cpu time   24.0603: real time   24.1432
       DOS:  cpu time    0.1470: real time    0.1485
    --------------------------------------------
      LOOP:  cpu time   24.2073: real time   24.2917

 eigenvalue-minimisations  :  9424
 total energy-change (2. order) :-0.1253966E+03  (-0.1232833E+03)
 number of electron      24.0000000 magnetization 
 augmentation part       24.0000000 magnetization 

 Free energy of the ion-electron system (eV)
  ---------------------------------------------------
  alpha Z        PSCENC =       106.91483610
  Ewald energy   TEWEN  =     -1315.26994955
  -Hartree energ DENC   =      -282.68390073
  -exchange      EXHF   =         0.00000000
  -V(xc)+E(xc)   XCENC  =      -121.65354400
  PAW double counting   =      1339.80839389    -1244.94305992
  entropy T*S    EENTRO =        -0.00092686
  eigenvalues    EBANDS =       168.41128290
  atomic energy  EATOM  =      1325.91434243
  Solvation  Ediel_sol  =         0.00000000
  ---------------------------------------------------
  free energy    TOTEN  =       -23.50252573 eV

  energy without entropy =      -23.50159887  energy(sigma->0) =      -23.50221678


--------------------------------------------------------------------------------------------------------




--------------------------------------- Iteration      1(   3)  ---------------------------------------


     EDDAV:  cpu time   36.9394: real time   37.0827
       DOS:  cpu time    0.1610: real time    0.1623
    --------------------------------------------
      LOOP:  cpu time   37.1004: real time   37.2450

 eigenvalue-minimisations  : 16872
 total energy-change (2. order) :-0.1502914E+02  (-0.1472710E+02)
 number of electron      24.0000000 magnetization 
 augmentation part       24.0000000 magnetization 

 Free energy of the ion-electron system (eV)
  ---------------------------------------------------
  alpha Z        PSCENC =       106.91483610
  Ewald energy   TEWEN  =     -1315.26994955
  -Hartree energ DENC   =      -282.68390073
  -exchange      EXHF   =         0.00000000
  -V(xc)+E(xc)   XCENC  =      -121.65354400
  PAW double counting   =      1339.80839389    -1244.94305992
  entropy T*S    EENTRO =        -0.00049469
  eigenvalues    EBANDS =       153.38170854
  atomic energy  EATOM  =      1325.91434243
  Solvation  Ediel_sol  =         0.00000000
  ---------------------------------------------------
  free energy    TOTEN  =       -38.53166792 eV

  energy without entropy =      -38.53117323  energy(sigma->0) =      -38.53150303


--------------------------------------------------------------------------------------------------------




--------------------------------------- Iteration      1(   4)  ---------------------------------------


     EDDAV:  cpu time   31.7182: real time   31.8628
       DOS:  cpu time    0.1670: real time    0.1667
    --------------------------------------------
      LOOP:  cpu time   31.8852: real time   32.0295

 eigenvalue-minimisations  : 13488
 total energy-change (2. order) :-0.5460629E+00  (-0.5379792E+00)
 number of electron      24.0000000 magnetization 
 augmentation part       24.0000000 magnetization 

 Free energy of the ion-electron system (eV)
  ---------------------------------------------------
  alpha Z        PSCENC =       106.91483610
  Ewald energy   TEWEN  =     -1315.26994955
  -Hartree energ DENC   =      -282.68390073
  -exchange      EXHF   =         0.00000000
  -V(xc)+E(xc)   XCENC  =      -121.65354400
  PAW double counting   =      1339.80839389    -1244.94305992
  entropy T*S    EENTRO =        -0.00169206
  eigenvalues    EBANDS =       152.83684302
  atomic energy  EATOM  =      1325.91434243
  Solvation  Ediel_sol  =         0.00000000
  ---------------------------------------------------
  free energy    TOTEN  =       -39.07773082 eV

  energy without entropy =      -39.07603876  energy(sigma->0) =      -39.07716680


--------------------------------------------------------------------------------------------------------




--------------------------------------- Iteration      1(   5)  ---------------------------------------


     EDDAV:  cpu time   34.9137: real time   35.0727
       DOS:  cpu time    0.1690: real time    0.1700
    CHARGE:  cpu time    3.3115: real time    3.3253
    MIXING:  cpu time    0.0060: real time    0.0058
    --------------------------------------------
      LOOP:  cpu time   38.4002: real time   38.5737

 eigenvalue-minimisations  : 15584
 total energy-change (2. order) :-0.1759438E-01  (-0.1754984E-01)
 number of electron      23.9999993 magnetization 
 augmentation part        8.4199675 magnetization 

 Broyden mixing:
  rms(total) = 0.23441E+01    rms(broyden)= 0.23439E+01
  rms(prec ) = 0.40689E+01
  weight for this iteration     100.00

 Free energy of the ion-electron system (eV)
  ---------------------------------------------------
  alpha Z        PSCENC =       106.91483610
  Ewald energy   TEWEN  =     -1315.26994955
  -Hartree energ DENC   =      -282.68390073
  -exchange      EXHF   =         0.00000000
  -V(xc)+E(xc)   XCENC  =      -121.65354400
  PAW double counting   =      1339.80839389    -1244.94305992
  entropy T*S    EENTRO =        -0.00174502
  eigenvalues    EBANDS =       152.81930159
  atomic energy  EATOM  =      1325.91434243
  Solvation  Ediel_sol  =         0.00000000
  ---------------------------------------------------
  free energy    TOTEN  =       -39.09532520 eV

  energy without entropy =      -39.09358018  energy(sigma->0) =      -39.09474353


--------------------------------------------------------------------------------------------------------




--------------------------------------- Iteration      1(   6)  ---------------------------------------


    POTLOK:  cpu time    0.1550: real time    0.1563
    SETDIJ:  cpu time    0.0720: real time    0.0721
     EDDAV:  cpu time   27.7078: real time   27.8234
       DOS:  cpu time    0.1840: real time    0.1846
    CHARGE:  cpu time    3.1025: real time    3.1104
    MIXING:  cpu time    0.0070: real time    0.0064
    --------------------------------------------
      LOOP:  cpu time   31.2283: real time   31.3533

 eigenvalue-minimisations  : 12416
 total energy-change (2. order) :-0.4692938E+01  (-0.1504744E+02)
 number of electron      23.9999993 magnetization 
 augmentation part       11.0919367 magnetization 

 Broyden mixing:
  rms(total) = 0.30334E+01    rms(broyden)= 0.30332E+01
  rms(prec ) = 0.67094E+01
  weight for this iteration     100.00

 eigenvalues of (default mixing * dielectric matrix)
  average eigenvalue GAMMA=   0.3912
  0.3912

 Free energy of the ion-electron system (eV)
  ---------------------------------------------------
  alpha Z        PSCENC =       106.91483610
  Ewald energy   TEWEN  =     -1315.26994955
  -Hartree energ DENC   =      -231.51868492
  -exchange      EXHF   =         0.00000000
  -V(xc)+E(xc)   XCENC  =      -122.90643550
  PAW double counting   =      1536.08033751    -1430.82028165
  entropy T*S    EENTRO =         0.00418223
  eigenvalues    EBANDS =        87.81339011
  atomic energy  EATOM  =      1325.91434243
  Solvation  Ediel_sol  =         0.00000000
  ---------------------------------------------------
  free energy    TOTEN  =       -43.78826322 eV

  energy without entropy =      -43.79244545  energy(sigma->0) =      -43.78965730


--------------------------------------------------------------------------------------------------------




--------------------------------------- Iteration      1(   7)  ---------------------------------------


    POTLOK:  cpu time    0.1490: real time    0.1496
    SETDIJ:  cpu time    0.0690: real time    0.0702
     EDDAV:  cpu time   31.5352: real time   31.6678
       DOS:  cpu time    0.1880: real time    0.1884
    CHARGE:  cpu time    3.2855: real time    3.2967
    MIXING:  cpu time    0.0070: real time    0.0064
    --------------------------------------------
[...]
     14       7.2625     -0.04620
     15       7.8508     -0.00000
     16       7.9083     -0.00000

 k-point   279 :       0.9231    0.5000    0.5000
  band No.  band energies     occupation 
      1       2.3136      2.00000
      2       2.7009      2.00000
      3       4.2437      2.00000
      4       4.3452      2.00000
      5       4.9026      2.00000
      6       5.1672      2.00000
      7       5.4899      2.00000
      8       5.5419      2.00000
      9       5.5967      2.00000
     10       5.9562      2.00000
     11       6.5010      2.00770
     12       6.6830      2.06941
     13       6.7282      2.06221
     14       7.4517     -0.00189
     15       7.6165     -0.00002
     16       8.1597     -0.00000

 k-point   280 :       0.5385    0.3571    0.6429
  band No.  band energies     occupation 
      1       3.3542      2.00000
      2       3.6178      2.00000
      3       3.7428      2.00000
      4       3.9053      2.00000
      5       4.2802      2.00000
      6       4.3204      2.00000
      7       5.7610      2.00000
      8       6.1250      2.00000
      9       6.1388      2.00000
     10       6.6234      2.04648
     11       6.9380      1.03984
     12       7.2018     -0.06952
     13       7.3570     -0.01261
     14       8.3506     -0.00000
     15       8.5396     -0.00000
     16       9.0643     -0.00000

 k-point   281 :       0.3846    0.3000    0.3000
  band No.  band energies     occupation 
      1       3.0270      2.00000
      2       3.6985      2.00000
      3       3.8159      2.00000
      4       4.0164      2.00000
      5       4.3992      2.00000
      6       4.4464      2.00000
      7       5.5733      2.00000
      8       5.9918      2.00000
      9       6.5474      2.01725
     10       6.5492      2.01774
     11       6.7062      2.07033
     12       6.7960      1.94200
     13       7.6198     -0.00002
     14       7.7256     -0.00000
     15       7.8459     -0.00000
     16       8.8870     -0.00000

 k-point   282 :       1.0000    0.1571    0.4429
  band No.  band energies     occupation 
      1       1.2935      2.00000
      2       2.7518      2.00000
      3       3.7149      2.00000
      4       4.3889      2.00000
      5       4.6981      2.00000
      6       5.1562      2.00000
      7       5.5162      2.00000
      8       6.1129      2.00000
      9       6.1352      2.00000
     10       6.3606      2.00031
     11       6.4746      2.00458
     12       6.5593      2.02072
     13       7.0101      0.46415
     14       7.3012     -0.02943
     15       7.4908     -0.00074
     16       7.9114     -0.00000

 k-point   283 :       0.8462    0.1000    0.1000
  band No.  band energies     occupation 
      1       0.4930      2.00000
      2       3.6453      2.00000
      3       3.8591      2.00000
      4       3.9716      2.00000
      5       4.3590      2.00000
      6       5.5285      2.00000
      7       5.6768      2.00000
      8       5.9494      2.00000
      9       6.4797      2.00508
     10       6.5373      2.01465
     11       6.7638      2.02086
     12       6.8863      1.45657
     13       6.9207      1.18458
     14       7.2587     -0.04798
     15       7.9498     -0.00000
     16       7.9585     -0.00000

 k-point   284 :       0.3846    0.9286    0.0714
  band No.  band energies     occupation 
      1       2.9576      2.00000
      2       4.5607      2.00000
      3       4.7212      2.00000
      4       4.8488      2.00000
      5       4.9812      2.00000
      6       5.0189      2.00000
      7       5.1522      2.00000
      8       5.4088      2.00000
      9       5.7866      2.00000
     10       5.8175      2.00000
     11       6.0714      2.00000
     12       6.4223      2.00145
     13       7.2156     -0.06596
     14       7.3189     -0.02302
     15       7.6365     -0.00001
     16       8.2624     -0.00000

 k-point   285 :       1.0000    0.7857    0.2143
  band No.  band energies     occupation 
      1       0.8856      2.00000
      2       3.2214      2.00000
      3       3.4862      2.00000
      4       3.9692      2.00000
      5       4.5372      2.00000
      6       5.6791      2.00000
      7       5.7157      2.00000
      8       6.0096      2.00000
      9       6.0894      2.00000
     10       6.2513      2.00001
     11       6.3266      2.00012
     12       6.8431      1.73814
     13       7.1680     -0.06752
     14       7.3320     -0.01894
     15       7.4459     -0.00216
     16       7.9402     -0.00000

 k-point   286 :       0.8462    0.7286    0.8714
  band No.  band energies     occupation 
      1       0.9501      2.00000
      2       3.6659      2.00000
      3       3.8926      2.00000
      4       4.2191      2.00000
      5       4.5391      2.00000
      6       5.3472      2.00000
      7       5.5467      2.00000
      8       5.6798      2.00000
      9       6.2585      2.00001
     10       6.6218      2.04572
     11       6.6340      2.05135
     12       6.8126      1.88290
     13       6.9993      0.54149
     14       7.1419     -0.04946
     15       7.4542     -0.00178
     16       8.0426     -0.00000

 k-point   287 :       0.2308    0.5000    0.5000
  band No.  band energies     occupation 
      1       2.9036      2.00000
      2       3.3507      2.00000
      3       4.0106      2.00000
      4       4.0394      2.00000
      5       4.6976      2.00000
      6       4.8088      2.00000
      7       5.1432      2.00000
      8       5.7614      2.00000
      9       6.1094      2.00000
     10       6.5034      2.00806
     11       6.5852      2.02983
     12       6.6708      2.06629
     13       6.9447      0.98322
     14       7.0407      0.27091
     15       8.2031     -0.00000
     16       8.4274     -0.00000

 k-point   288 :       0.8462    0.3571    0.6429
  band No.  band energies     occupation 
      1       2.6457      2.00000
      2       3.2825      2.00000
      3       3.3955      2.00000
      4       4.6284      2.00000
      5       4.9615      2.00000
      6       5.1115      2.00000
      7       5.3873      2.00000
      8       5.5877      2.00000
      9       5.7165      2.00000
     10       5.9402      2.00000
     11       6.4145      2.00121
     12       6.6283      2.04871
     13       6.9845      0.65444
     14       7.1743     -0.06941
     15       7.9930     -0.00000
     16       8.1487     -0.00000

 k-point   289 :       0.6923    0.3000    0.3000
  band No.  band energies     occupation 
      1       2.5192      2.00000
      2       3.8981      2.00000
      3       4.0061      2.00000
      4       4.1574      2.00000
      5       4.5828      2.00000
      6       4.6466      2.00000
      7       5.2539      2.00000
      8       5.6725      2.00000
      9       6.4363      2.00200
     10       6.6402      2.05421
     11       6.7726      2.00364
     12       6.7864      1.97041
     13       7.0763      0.10353
     14       7.4428     -0.00231
     15       7.6054     -0.00003
     16       8.5672     -0.00000

 k-point   290 :       0.6923    0.9286    0.0714
  band No.  band energies     occupation 
      1       2.0194      2.00000
      2       4.5363      2.00000
      3       4.7298      2.00000
      4       4.7627      2.00000
      5       4.8361      2.00000
      6       4.9926      2.00000
      7       5.0905      2.00000
      8       5.2703      2.00000
      9       6.0124      2.00000
     10       6.0691      2.00000
     11       6.4972      2.00717
     12       6.6593      2.06229
     13       7.0037      0.50909
     14       7.3211     -0.02229
     15       7.3902     -0.00690
     16       8.2975     -0.00000

 k-point   291 :       0.5385    0.5000    0.5000
  band No.  band energies     occupation 
      1       3.0726      2.00000
      2       3.3979      2.00000
      3       3.4108      2.00000
      4       3.5479      2.00000
      5       4.0682      2.00000
      6       4.0887      2.00000
      7       5.9923      2.00000
      8       6.3288      2.00013
      9       6.4511      2.00279
     10       6.7963      1.94095
     11       7.1765     -0.06988
     12       7.7289     -0.00000
     13       7.7963     -0.00000
     14       8.7807     -0.00000
     15       9.1404     -0.00000
     16       9.2376     -0.00000

 k-point   292 :       1.0000    0.3000    0.3000
  band No.  band energies     occupation 
      1       0.8680      2.00000
      2       3.3170      2.00000
      3       3.8328      2.00000
      4       3.9436      2.00000
      5       4.4787      2.00000
      6       5.5489      2.00000
      7       5.8544      2.00000
      8       6.0298      2.00000
      9       6.1764      2.00000
     10       6.2392      2.00001
     11       6.3239      2.00011
     12       6.5282      2.01257
     13       7.2345     -0.05888
     14       7.5226     -0.00032
     15       7.5508     -0.00015
     16       8.2104     -0.00000

 k-point   293 :       1.0000    0.9286    0.0714
  band No.  band energies     occupation 
      1      -0.0761      2.00000
      2       3.2506      2.00000
      3       3.4451      2.00000
      4       3.5447      2.00000
      5       4.1174      2.00000
      6       5.9345      2.00000
      7       5.9844      2.00000
      8       6.0622      2.00000
      9       6.2405      2.00001
     10       6.5980      2.03506
     11       6.9299      1.10796
     12       7.0556      0.19293
     13       7.2992     -0.03023
     14       7.5476     -0.00016
     15       8.0516     -0.00000
     16       8.1462     -0.00000

 k-point   294 :       0.8462    0.5000    0.5000
  band No.  band energies     occupation 
      1       2.5845      2.00000
      2       3.0101      2.00000
      3       4.2318      2.00000
      4       4.2820      2.00000
      5       4.9352      2.00000
      6       4.9704      2.00000
      7       5.1965      2.00000
      8       5.5620      2.00000
      9       5.8112      2.00000
     10       6.0707      2.00000
     11       6.4098      2.00108
     12       6.5970      2.03466
     13       6.9663      0.80148
     14       7.2042     -0.06904
     15       7.8158     -0.00000
     16       8.2031     -0.00000


--------------------------------------------------------------------------------------------------------


 soft charge-density along one line, spin component           1
         0         1         2         3         4         5         6         7         8         9
 total charge-density along one line
 
 pseudopotential strength for first ion, spin component:           1
 -2.015   0.000   0.036  -0.000  -0.000  -2.601   0.000   0.035
  0.000  -1.993  -0.000  -0.011   0.000   0.000  -2.580  -0.000
  0.036  -0.000  -2.013   0.000   0.000   0.035  -0.000  -2.599
 -0.000  -0.011   0.000  -1.993   0.000  -0.000  -0.011   0.000
 -0.000   0.000   0.000   0.000  -1.978  -0.000   0.000   0.000
 -2.601   0.000   0.035  -0.000  -0.000  -3.130   0.000   0.033
  0.000  -2.580  -0.000  -0.011   0.000   0.000  -3.110  -0.000
  0.035  -0.000  -2.599   0.000   0.000   0.033  -0.000  -3.128
 -0.000  -0.011   0.000  -2.580   0.000  -0.000  -0.010   0.000
 -0.000   0.000   0.000   0.000  -2.566  -0.000   0.000   0.000
  0.007   0.000  -0.000  -0.000   0.000   0.007   0.000  -0.000
  0.013   0.000  -0.001  -0.000   0.000   0.013   0.000  -0.001
 -0.000   0.000  -0.000   0.000  -0.000  -0.000   0.000  -0.000
  0.000   0.000   0.000  -0.000  -0.000   0.000   0.000   0.000
  0.000   0.000   0.000   0.000  -0.000   0.000   0.000   0.000
 -0.000   0.000  -0.000   0.000  -0.000  -0.000   0.000  -0.000
  0.000   0.000   0.000  -0.000  -0.000   0.000   0.000   0.000
  0.000   0.000   0.000   0.000  -0.000   0.000   0.000   0.000
 total augmentation occupancy for first ion, spin component:           1
  1.291   0.000   0.048   0.000   0.000  -0.276   0.000   0.020   0.000   0.000  -0.047   0.003   0.000   0.000   0.000   0.000
  0.000   1.504   0.000   0.068   0.000   0.000  -0.297  -0.000   0.010   0.000   0.000   0.000   0.000   0.000   0.000   0.000
  0.048   0.000   1.907   0.000   0.000   0.023   0.000  -0.675   0.000   0.000   0.018   0.003   0.000   0.000   0.000   0.000
  0.000   0.068   0.000   1.504   0.000   0.000   0.010  -0.000  -0.297   0.000   0.000  -0.000   0.000   0.000   0.000   0.000
  0.000   0.000   0.000   0.000   2.162   0.000   0.000   0.000   0.000  -0.707   0.000   0.000   0.000   0.000   0.000   0.000
 -0.276   0.000   0.023   0.000   0.000   0.740   0.000  -0.021   0.000   0.000  -0.022  -0.001   0.000   0.000   0.000   0.000
 -0.000  -0.297  -0.000   0.010   0.000  -0.000   0.703   0.000  -0.056   0.000   0.000   0.000   0.000   0.000   0.000   0.000
  0.020  -0.000  -0.675  -0.000   0.000  -0.021   0.000   0.933   0.000   0.000   0.017   0.001   0.000   0.000   0.000   0.000
 -0.000   0.010   0.000  -0.297   0.000   0.000  -0.056   0.000   0.703   0.000   0.000  -0.000   0.000   0.000   0.000   0.000
  0.000   0.000   0.000   0.000  -0.707   0.000   0.000   0.000   0.000   0.862   0.000   0.000   0.000   0.000   0.000   0.000
 -0.047   0.000   0.018   0.000   0.000  -0.022   0.000   0.017  -0.000   0.000   2.073  -0.187   0.000   0.000   0.000   0.000
  0.003   0.000   0.003   0.000   0.000  -0.001   0.000   0.001  -0.000   0.000  -0.187   0.021   0.000   0.000   0.000   0.000
  0.000   0.000   0.000   0.000   0.000   0.000   0.000   0.000   0.000   0.000   0.000   0.000   0.274   0.000  -0.004  -0.022
  0.000   0.000   0.000   0.000   0.000   0.000   0.000   0.000   0.000   0.000   0.000   0.000   0.000   0.269   0.000  -0.000
  0.000   0.000   0.000   0.000   0.000   0.000   0.000   0.000   0.000   0.000   0.000   0.000  -0.004   0.000   0.274  -0.001
  0.000   0.000   0.000   0.000   0.000   0.000   0.000   0.000   0.000   0.000   0.000   0.000  -0.022   0.000  -0.001   0.002
  0.000   0.000   0.000   0.000   0.000   0.000   0.000   0.000   0.000   0.000   0.000   0.000   0.000  -0.021   0.000   0.000
  0.000   0.000   0.000   0.000   0.000   0.000   0.000   0.000   0.000   0.000   0.000   0.000  -0.001   0.000  -0.022   0.000


------------------------ aborting loop because EDIFF is reached ----------------------------------------


    CHARGE:  cpu time    3.1155: real time    3.1258
    FORLOC:  cpu time    0.0180: real time    0.0182
    FORNL :  cpu time    7.2049: real time    7.2264
    STRESS:  cpu time   10.4124: real time   10.4569
    FORCOR:  cpu time    0.1720: real time    0.1732
    FORHAR:  cpu time    0.0470: real time    0.0469
    MIXING:  cpu time    0.0100: real time    0.0096
    OFIELD:  cpu time    0.0000: real time    0.0001

  FORCE on cell =-STRESS in cart. coord.  units (eV):
  Direction    XX          YY          ZZ          XY          YZ          ZX
  --------------------------------------------------------------------------------------
  Alpha Z   106.91484   106.91484   106.91484
  Ewald    -431.18364  -431.18364  -452.90323    26.76422     0.00000     0.00000
  Hartree    89.00259    89.00259    66.64913    26.99538    -0.00000    -0.00000
  E(xc)    -111.95683  -111.95683  -111.79849    -0.03650    -0.00000     0.00000
  Local     -45.40027   -45.40027    -1.55212   -52.30564    -0.00000     0.00000
  n-local    -8.16514    -8.26353    -8.07488    -0.15668     0.04459     0.15141
  augment   214.26808   214.26808   214.18474    -0.70893     0.00000     0.00000
  Kinetic   184.47968   184.45230   183.96633    -0.77704     0.11362     0.19465
  Fock        0.00000     0.00000     0.00000     0.00000     0.00000     0.00000
  -------------------------------------------------------------------------------------
  Total      -2.10359    -2.10359    -2.61367    -0.22623     0.00000     0.00000
  in kB     -64.42523   -64.42523   -80.04735    -6.92855     0.00000     0.00000
  external pressure =      -69.63 kB  Pullay stress =        0.00 kB


 VOLUME and BASIS-vectors are now :
 -----------------------------------------------------------------------------
  energy-cutoff  :      267.97
  volume of cell :       52.31
      direct lattice vectors                 reciprocal lattice vectors
     1.870000000  1.870000000  0.000000000     0.267379679  0.267379679  0.000000000
    -1.870000000  1.870000000  3.740000000    -0.133689840  0.133689840  0.133689840
     1.870000000 -1.870000000  3.740000000     0.133689840 -0.133689840  0.133689840

  length of vectors
     2.644579362  4.580545819  4.580545819     0.378131969  0.231557595  0.231557595


 FORCES acting on ions
    electron-ion (+dipol)            ewald-force                    non-local-force                 convergence-correction
 -----------------------------------------------------------------------------------------------
   -.435E-14 -.587E-14 -.299E-13   0.167E-14 0.350E-14 -.701E-14   0.116E-22 0.149E-22 0.232E-22   -.152E-13 0.518E-15 -.110E-13
   0.194E-12 -.155E-12 0.118E-12   -.560E-14 0.401E-14 0.175E-14   0.000E+00 0.000E+00 0.000E+00   -.319E-14 0.326E-14 -.296E-14
   -.589E-13 0.993E-13 -.170E-12   0.263E-14 -.316E-14 0.135E-14   -.331E-23 0.331E-23 -.662E-23   0.307E-14 -.478E-14 0.423E-14
   -.284E-14 -.615E-14 0.782E-13   0.358E-15 -.272E-14 0.384E-14   0.000E+00 0.000E+00 0.000E+00   -.106E-14 -.620E-14 0.257E-14
 -----------------------------------------------------------------------------------------------
   0.128E-12 -.674E-13 -.376E-14   -.945E-15 0.163E-14 -.606E-16   0.827E-23 0.182E-22 0.165E-22   -.163E-13 -.721E-14 -.719E-14
 
 
 POSITION                                       TOTAL-FORCE (eV/Angst)
 -----------------------------------------------------------------------------------
      0.00000      0.00000      0.00000        -0.000000      0.000000     -0.000000
      0.00000      1.87000      1.87000         0.000000      0.000000      0.000000
      1.87000      0.00000      1.87000         0.000000     -0.000000      0.000000
      0.00000      0.00000      3.74000        -0.000000      0.000000     -0.000000
 -----------------------------------------------------------------------------------
    total drift:                                0.000000     -0.000000     -0.000000


--------------------------------------------------------------------------------------------------------



  FREE ENERGIE OF THE ION-ELECTRON SYSTEM (eV)
  ---------------------------------------------------
  free  energy   TOTEN  =       -33.31377906 eV

  energy  without entropy=      -33.31416631  energy(sigma->0) =      -33.31390814
 


--------------------------------------------------------------------------------------------------------


    POTLOK:  cpu time    0.2210: real time    0.2218


--------------------------------------------------------------------------------------------------------


 writing wavefunctions
     LOOP+:  cpu time  538.2442: real time  540.8630
    4ORBIT:  cpu time    0.0000: real time    0.0000

 total amount of memory used by VASP MPI-rank0   127568. kBytes
=======================================================================

   base      :      30000. kBytes
   nonl-proj :      45418. kBytes
   fftplans  :       2280. kBytes
   grid      :       4048. kBytes
   one-center:         62. kBytes
   wavefun   :      45760. kBytes
 
  
  
 General timing and accounting informations for this job:
 ========================================================
  
                  Total CPU time used (sec):      542.037
                            User time (sec):      541.699
                          System time (sec):        0.338
                         Elapsed time (sec):      545.134
  
                   Maximum memory used (kb):      127224.
                   Average memory used (kb):           0.
  
                          Minor page faults:        33452
                          Major page faults:            9
                 Voluntary context switches:          286
