 vasp.6.0.0 18Apr17 (build Mar 23 2018 09:59:13) complex                        
  
 executed on             LinuxIFC date 2018.06.18  11:00:52
 running on    1 total cores
 distrk:  each k-point on    1 cores,    1 groups
 distr:  one band on NCORES_PER_BAND=   1 cores,    1 groups


--------------------------------------------------------------------------------------------------------


 INCAR:
 POTCAR:    PAW_PBE V 08Apr2002                   
 POTCAR:    PAW_PBE W 08Apr2002                   
 POTCAR:    PAW_PBE V 08Apr2002                   
   VRHFIN =V: p6 d4 s1                                                          
   LEXCH  = PE                                                                  
   EATOM  =   170.8679 eV,   12.5584 Ry                                         
                                                                                
   TITEL  = PAW_PBE V 08Apr2002                                                 
   LULTRA =        F    use ultrasoft PP ?                                      
   IUNSCR =        1    unscreen: 0-lin 1-nonlin 2-no                           
   RPACOR =    2.000    partial core radius                                     
   POMASS =   50.941; ZVAL   =    5.000    mass and valenz                      
   RCORE  =    2.700    outmost cutoff radius                                   
   RWIGS  =    2.500; RWIGS  =    1.323    wigner-seitz radius (au A)           
   ENMAX  =  192.543; ENMIN  =  144.408 eV                                      
   RCLOC  =    1.779    cutoff for local pot                                    
   LCOR   =        T    correct aug charges                                     
   LPAW   =        T    paw PP                                                  
   EAUG   =  358.662                                                            
   DEXC   =    0.000                                                            
   RMAX   =    2.768    core radius for proj-oper                               
   RAUG   =    1.300    factor for augmentation sphere                          
   RDEP   =    2.762    radius for radial grids                                 
   RDEPT  =    2.240    core radius for aug-charge                              
                                                                                
   Atomic configuration                                                         
    9 entries                                                                   
     n  l   j            E        occ.                                          
     1  0  0.50     -5360.7193   2.0000                                         
     2  0  0.50      -598.4546   2.0000                                         
     2  1  1.50      -499.0155   6.0000                                         
     3  0  0.50       -66.5711   2.0000                                         
     3  1  1.50       -40.5282   6.0000                                         
     3  2  2.50        -2.4291   4.0000                                         
     4  0  0.50        -3.8743   1.0000                                         
     4  1  0.50        -2.7212   0.0000                                         
     4  3  2.50        -1.3606   0.0000                                         
   Description                                                                  
     l       E           TYP  RCUT    TYP  RCUT                                 
     2     -2.4290901     23  2.700                                             
     2     -3.7896727     23  2.700                                             
     0     -3.8742752     23  2.700                                             
     0     27.2116520     23  2.700                                             
     1     -2.7211652     23  2.700                                             
     1     27.2116520     23  2.700                                             
  local pseudopotential read in
  partial core-charges read in
  partial kinetic energy density read in
  atomic valenz-charges read in
  non local Contribution for L=           2  read in
    real space projection operators read in
  non local Contribution for L=           2  read in
    real space projection operators read in
  non local Contribution for L=           0  read in
    real space projection operators read in
  non local Contribution for L=           0  read in
    real space projection operators read in
  non local Contribution for L=           1  read in
    real space projection operators read in
  non local Contribution for L=           1  read in
    real space projection operators read in
    PAW grid and wavefunctions read in
 
   number of l-projection  operators is LMAX  =           6
   number of lm-projection operators is LMMAX =          18
 
 POTCAR:    PAW_PBE W 08Apr2002                   
   VRHFIN =W : 6s5d                                                             
   LEXCH  = PE                                                                  
   EATOM  =   204.6103 eV,   15.0384 Ry                                         
                                                                                
   TITEL  = PAW_PBE W 08Apr2002                                                 
   LULTRA =        F    use ultrasoft PP ?                                      
   IUNSCR =        1    unscreen: 0-lin 1-nonlin 2-no                           
   RPACOR =    2.330    partial core radius                                     
   POMASS =  183.850; ZVAL   =    6.000    mass and valenz                      
   RCORE  =    2.750    outmost cutoff radius                                   
   RWIGS  =    2.750; RWIGS  =    1.455    wigner-seitz radius (au A)           
   ENMAX  =  223.057; ENMIN  =  167.293 eV                                      
   RCLOC  =    2.147    cutoff for local pot                                    
   LCOR   =        T    correct aug charges                                     
   LPAW   =        T    paw PP                                                  
   EAUG   =  373.438                                                            
   DEXC   =    0.000                                                            
   RMAX   =    2.801    core radius for proj-oper                               
   RAUG   =    1.300    factor for augmentation sphere                          
   RDEP   =    2.886    radius for radial grids                                 
   RDEPT  =    2.230    core radius for aug-charge                              
                                                                                
   Atomic configuration                                                         
   16 entries                                                                   
     n  l   j            E        occ.                                          
     1  0  0.50    -69465.5836   2.0000                                         
     2  0  0.50    -11986.2642   2.0000                                         
     2  1  1.50    -10479.8616   6.0000                                         
     3  0  0.50     -2759.0758   2.0000                                         
     3  1  1.50     -2313.1857   6.0000                                         
     3  2  2.50     -1801.1185  10.0000                                         
     4  0  0.50      -567.6791   2.0000                                         
     4  1  1.50      -421.4694   6.0000                                         
     4  2  2.50      -236.3473  10.0000                                         
     4  3  3.50       -31.2666  14.0000                                         
     5  0  0.50       -77.1085   2.0000                                         
     5  1  1.50       -41.3856   6.0000                                         
     5  2  2.50        -3.3185   5.0000                                         
     6  0  0.50        -5.1438   1.0000                                         
     6  1  0.50        -3.8096   0.0000                                         
     5  3  2.50        -1.3606   0.0000                                         
   Description                                                                  
     l       E           TYP  RCUT    TYP  RCUT                                 
     2     -3.3185288     23  2.500                                             
     2     -1.5965414     23  2.500                                             
     0     -5.1438054     23  2.500                                             
     0      4.9117504     23  2.500                                             
     1      2.7211652     23  2.750                                             
     1     27.2116520     23  2.750                                             
  local pseudopotential read in
  partial core-charges read in
  partial kinetic energy density read in
  atomic valenz-charges read in
  non local Contribution for L=           2  read in
    real space projection operators read in
  non local Contribution for L=           2  read in
    real space projection operators read in
  non local Contribution for L=           0  read in
    real space projection operators read in
  non local Contribution for L=           0  read in
    real space projection operators read in
  non local Contribution for L=           1  read in
    real space projection operators read in
  non local Contribution for L=           1  read in
    real space projection operators read in
    PAW grid and wavefunctions read in
 
   number of l-projection  operators is LMAX  =           6
   number of lm-projection operators is LMMAX =          18
 
  PAW_PBE V 08Apr2002                   :
 energy of atom  1       EATOM= -170.8679
 kinetic energy error for atom=    0.0112 (will be added to EATOM!!)
  PAW_PBE W 08Apr2002                   :
 energy of atom  2       EATOM= -204.6103
 kinetic energy error for atom=    0.0299 (will be added to EATOM!!)
 
 
 POSCAR:  V  W                                   
  positions in cartesian coordinates
  No initial velocities read in
 exchange correlation table for  LEXCH =        8
   RHO(1)=    0.500       N(1)  =     2000
   RHO(2)=  100.500       N(2)  =     4000
 


--------------------------------------------------------------------------------------------------------


 ion  position               nearest neighbor table
   1  0.000  0.000  0.000-   2 2.75   2 2.75   3 2.75   4 2.75   3 2.75   2 2.75   4 2.75   3 2.75
                             3 2.75   4 2.75
   2  0.750  0.500  0.250-   3 2.75   1 2.75   3 2.75   4 2.75   4 2.75   1 2.75   3 2.75   4 2.75
                             4 2.75   1 2.75
   3  0.500  0.000  0.500-   4 2.75   1 2.75   2 2.75   4 2.75   1 2.75   2 2.75   4 2.75   1 2.75
                             1 2.75   2 2.75
   4  0.250  0.500  0.750-   1 2.75   1 2.75   2 2.75   3 2.75   2 2.75   1 2.75   3 2.75   2 2.75
                             2 2.75   3 2.75
 
  LATTYP: Found a base centered monoclinic cell.
 ALAT       =     9.1228586529
 B/A-ratio  =     0.3015113446
 C/A-ratio  =     1.0444659357
 COS(beta)  =    -0.8333333333
  
  Lattice vectors:
  
 A1 = (  -3.8900000000,   1.9450000000,   1.9450000000)
 A2 = (  -1.9450000000,   3.8900000000,   1.9450000000)
 A3 = (   3.8900000000,  -3.8900000000,  -7.7800000000)


Analysis of symmetry for initial positions (statically):
=====================================================================
 Subroutine PRICEL returns:
 Original cell was already a primitive cell.
 

 Routine SETGRP: Setting up the symmetry group for a 
 base centered monoclinic supercell.


 Subroutine GETGRP returns: Found  4 space group operations
 (whereof  2 operations were pure point group operations)
 out of a pool of  4 trial point group operations.


The static configuration has the point symmetry C_1h.
 The point group associated with its full space group is C_2h.


Analysis of symmetry for dynamics (positions and initial velocities):
=====================================================================
 Subroutine PRICEL returns:
 Original cell was already a primitive cell.
 

 Routine SETGRP: Setting up the symmetry group for a 
 base centered monoclinic supercell.


 Subroutine GETGRP returns: Found  4 space group operations
 (whereof  2 operations were pure point group operations)
 out of a pool of  4 trial point group operations.


The dynamic configuration has the point symmetry C_1h.
 The point group associated with its full space group is C_2h.


 Subroutine INISYM returns: Found  4 space group operations
 (whereof  2 operations are pure point group operations),
 and found     1 'primitive' translations

 
 
 KPOINTS: Server version 2018.05.22. K-point grid 
  k-points in reciprocal lattice
Space group operators:
 irot       det(A)        alpha          n_x          n_y          n_z        tau_x        tau_y        tau_z
    1     1.000000     0.000000     1.000000     0.000000     0.000000     0.000000     0.000000     0.000000
    2    -1.000000   180.000000     0.707107     0.707107     0.000000     0.000000     0.000000     0.000000
    3    -1.000000     0.000000     1.000000     0.000000     0.000000    -0.250000    -0.500000    -0.750000
    4     1.000000   180.000000     0.707107     0.707107     0.000000    -0.250000    -0.500000    -0.750000


--------------------------------------------------------------------------------------------------------




 Dimension of arrays:
   k-points           NKPTS =    450   k-points in BZ     NKDIM =    450   number of bands    NBANDS=     15
   number of dos      NEDOS =    301   number of ions     NIONS =      4
   non local maximal  LDIM  =      6   non local SUM 2l+1 LMDIM =     18
   total plane-waves  NPLWV =   8064
   max r-space proj   IRMAX =      1   max aug-charges    IRDMAX=   8506
   dimension x,y,z NGX =    14 NGY =   24 NGZ =   24
   dimension x,y,z NGXF=    28 NGYF=   48 NGZF=   48
   support grid    NGXF=    28 NGYF=   48 NGZF=   48
   ions per type =               2   2
   NGX,Y,Z   is equivalent  to a cutoff of   8.46,  8.37,  8.37 a.u.
   NGXF,Y,Z  is equivalent  to a cutoff of  16.92, 16.75, 16.75 a.u.

 SYSTEM =  unknown system                          
 POSCAR =   V  W                                   

 Startparameter for this run:
   NWRITE =      2    write-flag & timer
   PREC   = a         normal or accurate (medium, high low for compatibility)
   ISTART =      0    job   : 0-new  1-cont  2-samecut
   ICHARG =      2    charge: 1-file 2-atom 10-const
   ISPIN  =      1    spin polarized calculation?
   LNONCOLLINEAR =      F non collinear calculations
   LSORBIT =      F    spin-orbit coupling
   INIWAV =      1    electr: 0-lowe 1-rand  2-diag
   LASPH  =      F    aspherical Exc in radial PAW
   METAGGA=      F    non-selfconsistent MetaGGA calc.

 Electronic Relaxation 1
   ENCUT  =  223.1 eV  16.39 Ry    4.05 a.u.   3.35  5.80  5.80*2*pi/ulx,y,z
   ENINI  =  223.1     initial cutoff
   ENAUG  =  373.4 eV  augmentation charge cutoff
   NELM   =     60;   NELMIN=  2; NELMDL= -5     # of ELM steps 
   EDIFF  = 0.1E-04   stopping-criterion for ELM
   LREAL  =      F    real-space projection
   NLSPLINE    = F    spline interpolate recip. space projectors
   LCOMPAT=      F    compatible to vasp.4.4
   GGA_COMPAT  = T    GGA compatible to vasp.4.4-vasp.4.6
   LMAXPAW     = -100 max onsite density
   LMAXMIX     =    2 max onsite mixed and CHGCAR
   VOSKOWN=      0    Vosko Wilk Nusair interpolation
   ROPT   =    0.00000   0.00000
 Ionic relaxation
   EDIFFG = 0.1E-03   stopping-criterion for IOM
   NSW    =      0    number of steps for IOM
   NBLOCK =      1;   KBLOCK =      1    inner block; outer block 
   IBRION =     -1    ionic relax: 0-MD 1-quasi-New 2-CG
   NFREE  =      0    steps in history (QN), initial steepest desc. (CG)
   ISIF   =      2    stress and relaxation
   IWAVPR =     10    prediction:  0-non 1-charg 2-wave 3-comb
   ISYM   =      2    0-nonsym 1-usesym 2-fastsym
   LCORR  =      T    Harris-Foulkes like correction to forces

   POTIM  = 0.5000    time-step for ionic-motion
   TEIN   =    0.0    initial temperature
   TEBEG  =    0.0;   TEEND  =   0.0 temperature during run
   SMASS  =  -3.00    Nose mass-parameter (am)
   estimated Nose-frequenzy (Omega)   =  0.10E-29 period in steps =****** mass=  -0.173E-27a.u.
   SCALEE = 1.0000    scale energy and forces
   NPACO  =    256;   APACO  = 16.0  distance and # of slots for P.C.
   PSTRESS=    0.0 pullay stress

  Mass of Ions in am
   POMASS =  50.94183.85
  Ionic Valenz
   ZVAL   =   5.00  6.00
  Atomic Wigner-Seitz radii
   RWIGS  =  -1.00 -1.00
  virtual crystal weights 
   VCA    =   1.00  1.00
   NELECT =      22.0000    total number of electrons
   NUPDOWN=      -1.0000    fix difference up-down

 DOS related values:
   EMIN   =  10.00;   EMAX   =-10.00  energy-range for DOS
   EFERMI =   0.00
   ISMEAR =     1;   SIGMA  =   0.20  broadening in eV -4-tet -1-fermi 0-gaus

 Electronic relaxation 2 (details)
   IALGO  =     38    algorithm
   LDIAG  =      T    sub-space diagonalisation (order eigenvalues)
   LSUBROT=      F    optimize rotation matrix (better conditioning)
   TURBO    =      0    0=normal 1=particle mesh
   IRESTART =      0    0=no restart 2=restart with 2 vectors
   NREBOOT  =      0    no. of reboots
   NMIN     =      0    reboot dimension
   EREF     =   0.00    reference energy to select bands
   IMIX   =      4    mixing-type and parameters
     AMIX     =   0.40;   BMIX     =  1.00
     AMIX_MAG =   1.60;   BMIX_MAG =  1.00
     AMIN     =   0.10
     WC   =   100.;   INIMIX=   1;  MIXPRE=   1;  MAXMIX= -45

 Intra band minimization:
   WEIMIN = 0.0000     energy-eigenvalue tresh-hold
   EBREAK =  0.17E-06  absolut break condition
   DEPER  =   0.30     relativ break condition  

   TIME   =   0.40     timestep for ELM

  volume/ion in A,a.u.               =      14.72        99.31
  Fermi-wavevector in a.u.,A,eV,Ry     =   1.179233  2.228426 18.920117  1.390589
  Thomas-Fermi vector in A             =   2.315547
 
 Write flags
   LWAVE        =      T    write WAVECAR
   LDOWNSAMPLE  =      F    k-point downsampling of WAVECAR
   LCHARG       =      T    write CHGCAR
   LVTOT        =      F    write LOCPOT, total local potential
   LVHAR        =      F    write LOCPOT, Hartree potential only
   LELF         =      F    write electronic localiz. function (ELF)
   LORBIT       =      0    0 simple, 1 ext, 2 COOP (PROOUT), +10 PAW based schemes


 Dipole corrections
   LMONO  =      F    monopole corrections only (constant potential shift)
   LDIPOL =      F    correct potential (dipole corrections)
   IDIPOL =      0    1-x, 2-y, 3-z, 4-all directions 
   EPSILON=  1.0000000 bulk dielectric constant

 Exchange correlation treatment:
   GGA     =    PE    GGA type
   LEXCH   =     8    internal setting for exchange type
   VOSKOWN=      0    Vosko Wilk Nusair interpolation
   LHFCALC =     F    Hartree Fock is set to
   LHFONE  =     F    Hartree Fock one center treatment
   AEXX    =    0.0000 exact exchange contribution

 Linear response parameters
   LEPSILON=     F    determine dielectric tensor
   LRPA    =     F    only Hartree local field effects (RPA)
   LNABLA  =     F    use nabla operator in PAW spheres
   LVEL    =     F    velocity operator in full k-point grid
   LINTERFAST=   F  fast interpolation
   KINTER  =     0    interpolate to denser k-point grid
   CSHIFT  =0.1000    complex shift for real part using Kramers Kronig
   OMEGAMAX=  -1.0    maximum frequency
   DEG_THRESHOLD= 0.2000000E-02 threshold for treating states as degnerate
   RTIME   =   -0.100 relaxation time in fs
  (WPLASMAI=    0.000 imaginary part of plasma frequency in eV, 0.658/RTIME)
   DFIELD  = 0.0000000 0.0000000 0.0000000 field for delta impulse in time
 
 Orbital magnetization related:
   ORBITALMAG=     F  switch on orbital magnetization
   LCHIMAG   =     F  perturbation theory with respect to B field
   DQ        =  0.001000  dq finite difference perturbation B field
   LLRAUG    =     F  two centre corrections for induced B field



--------------------------------------------------------------------------------------------------------


 Static calculation
 charge density and potential will be updated during run
 non-spin polarized calculation
 Variant of blocked Davidson
 Davidson routine will perform the subspace rotation
 perform sub-space diagonalisation
    after iterative eigenvector-optimisation
 modified Broyden-mixing scheme, WC =      100.0
 initial mixing is a Kerker type mixing with AMIX =  0.4000 and BMIX =      1.0000
 Hartree-type preconditioning will be used
 using additional bands            4
 reciprocal scheme for non local part
 use partial core corrections
 calculate Harris-corrections to forces 
   (improved forces if not selfconsistent)
 use gradient corrections 
 use of overlap-Matrix (Vanderbilt PP)
 Methfessel and Paxton  Order N= 1 SIGMA  =   0.20


--------------------------------------------------------------------------------------------------------


  energy-cutoff  :      223.06
  volume of cell :       58.86
      direct lattice vectors                 reciprocal lattice vectors
     1.945000000  1.945000000  0.000000000     0.192802057  0.321336761  0.064267352
    -3.890000000  1.945000000  1.945000000    -0.128534704  0.128534704  0.128534704
     1.945000000 -1.945000000  3.890000000     0.064267352 -0.064267352  0.192802057

  length of vectors
     2.750645379  4.764257550  4.764257550     0.380210783  0.222628639  0.213150693


 
 k-points in units of 2pi/SCALE and weight: Server version 2018.05.22. K-point grid 
  -0.10532705  0.12674950  0.15174236       0.002
  -0.04463011  0.08747501  0.30884033       0.002
  -0.04820051  0.11246787  0.27313625       0.002
  -0.05177092  0.13746073  0.23743216       0.002
  -0.05534133  0.16245358  0.20172808       0.002
  -0.05891174  0.18744644  0.16602399       0.002
   0.00178520  0.14817195  0.32312197       0.002
  -0.00178520  0.17316481  0.28741788       0.002
  -0.00535561  0.19815767  0.25171380       0.002
  -0.00892602  0.22315053  0.21600971       0.002
  -0.01249643  0.24814339  0.18030563       0.002
  -0.01606684  0.27313625  0.14460154       0.002
   0.04463011  0.23386175  0.30169951       0.002
   0.04105970  0.25885461  0.26599543       0.002
   0.03748929  0.28384747  0.23029135       0.002
   0.03391888  0.30884033  0.19458726       0.002
   0.03034847  0.33383319  0.15888318       0.002
   0.09104542  0.29455870  0.31598115       0.002
   0.08747501  0.31955156  0.28027706       0.002
   0.08390460  0.34454442  0.24457298       0.002
   0.08033419  0.36953728  0.20886889       0.002
   0.07676378  0.39453013  0.17316481       0.002
   0.13746073  0.35525564  0.33026278       0.002
  -0.05891174  0.05891174  0.23029135       0.001
  -0.06248215  0.08390460  0.19458726       0.002
  -0.06605256  0.10889746  0.15888318       0.002
  -0.06962296  0.13389032  0.12317909       0.002
  -0.00892602  0.09461582  0.28027706       0.002
  -0.01249643  0.11960868  0.24457298       0.002
  -0.01606684  0.14460154  0.20886889       0.002
  -0.01963725  0.16959440  0.17316481       0.002
  -0.02320765  0.19458726  0.13746073       0.002
   0.03748929  0.15531277  0.29455870       0.002
   0.03391888  0.18030563  0.25885461       0.002
   0.03034847  0.20529849  0.22315053       0.002
   0.02677806  0.23029135  0.18744644       0.002
   0.02320765  0.25528420  0.15174236       0.002
   0.08390460  0.21600971  0.30884033       0.002
   0.08033419  0.24100257  0.27313625       0.002
   0.07676378  0.26599543  0.23743216       0.002
   0.07319337  0.29098829  0.20172808       0.002
   0.06962296  0.31598115  0.16602399       0.002
   0.13031991  0.27670666  0.32312197       0.002
   0.12674950  0.30169951  0.28741788       0.002
   0.12317909  0.32669237  0.25171380       0.002
   0.11960868  0.35168523  0.21600971       0.002
   0.11603827  0.37667809  0.18030563       0.002
  -0.08033419  0.08033419  0.08033419       0.001
  -0.01963725  0.04105970  0.23743216       0.002
  -0.02320765  0.06605256  0.20172808       0.002
  -0.02677806  0.09104542  0.16602399       0.002
  -0.03034847  0.11603827  0.13031991       0.002
  -0.03391888  0.14103113  0.09461582       0.002
   0.02320765  0.12674950  0.21600971       0.002
   0.01963725  0.15174236  0.18030563       0.002
   0.01606684  0.17673522  0.14460154       0.002
   0.01249643  0.20172808  0.10889746       0.002
   0.07319337  0.16245358  0.26599543       0.002
   0.06962296  0.18744644  0.23029135       0.002
   0.06605256  0.21243930  0.19458726       0.002
   0.06248215  0.23743216  0.15888318       0.002
   0.05891174  0.26242502  0.12317909       0.002
   0.11960868  0.22315053  0.28027706       0.002
   0.11603827  0.24814339  0.24457298       0.002
   0.11246787  0.27313625  0.20886889       0.002
   0.10889746  0.29812911  0.17316481       0.002
   0.10532705  0.32312197  0.13746073       0.002
   0.16602399  0.28384747  0.29455870       0.002
   0.16245358  0.30884033  0.25885461       0.002
   0.15888318  0.33383319  0.22315053       0.002
  -0.03748929  0.03748929  0.12317909       0.001
  -0.04105970  0.06248215  0.08747501       0.002
   0.01963725  0.02320765  0.24457298       0.002
   0.01606684  0.04820051  0.20886889       0.002
   0.01249643  0.07319337  0.17316481       0.002
   0.00892602  0.09818623  0.13746073       0.002
   0.06605256  0.08390460  0.25885461       0.002
   0.06248215  0.10889746  0.22315053       0.002
   0.05891174  0.13389032  0.18744644       0.002
   0.05534133  0.15888318  0.15174236       0.002
   0.05177092  0.18387604  0.11603827       0.002
   0.10889746  0.16959440  0.23743216       0.002
   0.10532705  0.19458726  0.20172808       0.002
   0.10175664  0.21958012  0.16602399       0.002
   0.09818623  0.24457298  0.13031991       0.002
   0.09461582  0.26956584  0.09461582       0.002
   0.15531277  0.23029135  0.25171380       0.002
   0.15174236  0.25528420  0.21600971       0.002
   0.14817195  0.28027706  0.18030563       0.002
   0.14460154  0.30526992  0.14460154       0.002
   0.14103113  0.33026278  0.10889746       0.002
   0.20172808  0.29098829  0.26599543       0.002
   0.00535561 -0.00535561  0.16602399       0.001
   0.00178520  0.01963725  0.13031991       0.002
  -0.00178520  0.04463011  0.09461582       0.002
  -0.00535561  0.06962296  0.05891174       0.002
   0.05534133  0.03034847  0.21600971       0.002
   0.05177092  0.05534133  0.18030563       0.002
   0.04463011  0.10532705  0.10889746       0.002
   0.04105970  0.13031991  0.07319337       0.002
   0.10175664  0.09104542  0.23029135       0.002
   0.09818623  0.11603827  0.19458726       0.002
   0.09461582  0.14103113  0.15888318       0.002
   0.08747501  0.19101685  0.08747501       0.002
   0.14817195  0.15174236  0.24457298       0.002
   0.14460154  0.17673522  0.20886889       0.002
   0.14103113  0.20172808  0.17316481       0.002
   0.13746073  0.22672094  0.13746073       0.002
   0.19458726  0.21243930  0.25885461       0.002
   0.19101685  0.23743216  0.22315053       0.002
   0.18744644  0.26242502  0.18744644       0.002
   0.18387604  0.28741788  0.15174236       0.002
   0.18030563  0.31241074  0.11603827       0.002
  -0.01606684  0.01606684  0.01606684       0.001
   0.04463011 -0.02320765  0.17316481       0.002
   0.04105970  0.00178520  0.13746073       0.002
   0.03748929  0.02677806  0.10175664       0.002
   0.03391888  0.05177092  0.06605256       0.002
   0.03034847  0.07676378  0.03034847       0.002
   0.08747501  0.06248215  0.15174236       0.002
   0.08390460  0.08747501  0.11603827       0.002
   0.08033419  0.11246787  0.08033419       0.002
   0.07676378  0.13746073  0.04463011       0.002
   0.13746073  0.09818623  0.20172808       0.002
   0.13031991  0.14817195  0.13031991       0.002
   0.12674950  0.17316481  0.09461582       0.002
   0.12317909  0.19815767  0.05891174       0.002
   0.18387604  0.15888318  0.21600971       0.002
   0.18030563  0.18387604  0.18030563       0.002
   0.04463011  0.36239646  0.23743216       0.002
   0.04105970  0.38738932  0.20172808       0.002
   0.10175664  0.34811482  0.35882605       0.002
   0.09818623  0.37310768  0.32312197       0.002
   0.09461582  0.39810054  0.28741788       0.002
  -0.10175664  0.10175664  0.18744644       0.001
  -0.06962296  0.09104542  0.27313625       0.002
  -0.07319337  0.11603827  0.23743216       0.002
  -0.07676378  0.14103113  0.20172808       0.002
  -0.08033419  0.16602399  0.16602399       0.002
  -0.02320765  0.15174236  0.28741788       0.002
  -0.02677806  0.17673522  0.25171380       0.002
  -0.03034847  0.20172808  0.21600971       0.002
  -0.03391888  0.22672094  0.18030563       0.002
  -0.03748929  0.25171380  0.14460154       0.002
   0.01963725  0.23743216  0.26599543       0.002
   0.01606684  0.26242502  0.23029135       0.002
   0.01249643  0.28741788  0.19458726       0.002
   0.00892602  0.31241074  0.15888318       0.002
   0.06962296  0.27313625  0.31598115       0.002
   0.06248215  0.32312197  0.24457298       0.002
   0.05891174  0.34811482  0.20886889       0.002
   0.05534133  0.37310768  0.17316481       0.002
   0.11603827  0.33383319  0.33026278       0.002
   0.11246787  0.35882605  0.29455870       0.002
  -0.08747501  0.08747501  0.15888318       0.001
  -0.09104542  0.11246787  0.12317909       0.002
  -0.03034847  0.07319337  0.28027706       0.002
  -0.03391888  0.09818623  0.24457298       0.002
  -0.03748929  0.12317909  0.20886889       0.002
  -0.04463011  0.17316481  0.13746073       0.002
   0.01606684  0.13389032  0.29455870       0.002
   0.01249643  0.15888318  0.25885461       0.002
   0.00892602  0.18387604  0.22315053       0.002
   0.00535561  0.20886889  0.18744644       0.002
   0.06248215  0.19458726  0.30884033       0.002
   0.05891174  0.21958012  0.27313625       0.002
   0.05534133  0.24457298  0.23743216       0.002
   0.05177092  0.26956584  0.20172808       0.002
   0.04820051  0.29455870  0.16602399       0.002
   0.10532705  0.28027706  0.28741788       0.002
   0.10175664  0.30526992  0.25171380       0.002
   0.09818623  0.33026278  0.21600971       0.002
   0.09461582  0.35525564  0.18030563       0.002
   0.15531277  0.31598115  0.33740360       0.002
  -0.04463011  0.04463011  0.20172808       0.001
  -0.04820051  0.06962296  0.16602399       0.002
  -0.05177092  0.09461582  0.13031991       0.002
  -0.05534133  0.11960868  0.09461582       0.002
   0.00535561  0.08033419  0.25171380       0.002
  -0.00535561  0.15531277  0.14460154       0.002
  -0.00892602  0.18030563  0.10889746       0.002
   0.05177092  0.14103113  0.26599543       0.002
   0.04820051  0.16602399  0.23029135       0.002
   0.04105970  0.21600971  0.15888318       0.002
   0.03748929  0.24100257  0.12317909       0.002
   0.09818623  0.20172808  0.28027706       0.002
   0.09461582  0.22672094  0.24457298       0.002
   0.09104542  0.25171380  0.20886889       0.002
   0.08390460  0.30169951  0.13746073       0.002
   0.14460154  0.26242502  0.29455870       0.002
   0.14103113  0.28741788  0.25885461       0.002
   0.13746073  0.31241074  0.22315053       0.002
   0.13389032  0.33740360  0.18744644       0.002
  -0.00178520  0.00178520  0.24457298       0.001
  -0.00535561  0.02677806  0.20886889       0.002
  -0.00892602  0.05177092  0.17316481       0.002
  -0.01249643  0.07676378  0.13746073       0.002
  -0.01606684  0.10175664  0.10175664       0.002
   0.03748929  0.11246787  0.18744644       0.002
   0.03391888  0.13746073  0.15174236       0.002
   0.03034847  0.16245358  0.11603827       0.002
   0.02677806  0.18744644  0.08033419       0.002
   0.08033419  0.19815767  0.16602399       0.002
   0.07676378  0.22315053  0.13031991       0.002
   0.07319337  0.24814339  0.09461582       0.002
   0.13389032  0.20886889  0.25171380       0.002
   0.12674950  0.25885461  0.18030563       0.002
   0.12317909  0.28384747  0.14460154       0.002
   0.11960868  0.30884033  0.10889746       0.002
   0.18030563  0.26956584  0.26599543       0.002
   0.17673522  0.29455870  0.23029135       0.002
  -0.02320765  0.02320765  0.09461582       0.001
  -0.02677806  0.04820051  0.05891174       0.002
   0.03391888  0.00892602  0.21600971       0.002
   0.03034847  0.03391888  0.18030563       0.002
   0.02677806  0.05891174  0.14460154       0.002
   0.08033419  0.06962296  0.23029135       0.002
   0.07676378  0.09461582  0.19458726       0.002
   0.07319337  0.11960868  0.15888318       0.002
   0.06962296  0.14460154  0.12317909       0.002
   0.12317909  0.15531277  0.20886889       0.002
   0.11960868  0.18030563  0.17316481       0.002
   0.11603827  0.20529849  0.13746073       0.002
   0.11246787  0.23029135  0.10175664       0.002
   0.16602399  0.24100257  0.18744644       0.002
   0.16245358  0.26599543  0.15174236       0.002
   0.15888318  0.29098829  0.11603827       0.002
   0.15531277  0.31598115  0.08033419       0.002
   0.01963725 -0.01963725  0.13746073       0.001
   0.01606684  0.00535561  0.10175664       0.002
   0.01249643  0.03034847  0.06605256       0.002
   0.00892602  0.05534133  0.03034847       0.002
   0.06962296  0.01606684  0.18744644       0.002
   0.05891174  0.09104542  0.08033419       0.002
   0.05534133  0.11603827  0.04463011       0.002
   0.11603827  0.07676378  0.20172808       0.002
   0.11246787  0.10175664  0.16602399       0.002
   0.10175664  0.17673522  0.05891174       0.002
   0.16245358  0.13746073  0.21600971       0.002
   0.15888318  0.16245358  0.18030563       0.002
   0.15531277  0.18744644  0.14460154       0.002
   0.20886889  0.19815767  0.23029135       0.002
   0.20529849  0.22315053  0.19458726       0.002
   0.20172808  0.24814339  0.15888318       0.002
   0.19815767  0.27313625  0.12317909       0.002
  -0.06605256  0.06605256  0.30884033       0.001
   0.03034847 -0.00892602  0.07319337       0.002
   0.02677806  0.01606684  0.03748929       0.002
  -0.04105970  0.10532705  0.32312197       0.002
  -0.05177092  0.18030563  0.21600971       0.002
  -0.05534133  0.20529849  0.18030563       0.002
  -0.05891174  0.23029135  0.14460154       0.002
   0.00178520  0.19101685  0.30169951       0.002
  -0.00892602  0.26599543  0.19458726       0.002
  -0.01249643  0.29098829  0.15888318       0.002
   0.04820051  0.25171380  0.31598115       0.002
   0.04463011  0.27670666  0.28027706       0.002
   0.03391888  0.35168523  0.17316481       0.002
   0.09461582  0.31241074  0.33026278       0.002
   0.09104542  0.33740360  0.29455870       0.002
   0.08747501  0.36239646  0.25885461       0.002
  -0.05177092  0.05177092  0.28027706       0.001
  -0.05534133  0.07676378  0.24457298       0.002
  -0.05891174  0.10175664  0.20886889       0.002
  -0.06248215  0.12674950  0.17316481       0.002
  -0.00892602  0.13746073  0.25885461       0.002
  -0.01249643  0.16245358  0.22315053       0.002
  -0.01606684  0.18744644  0.18744644       0.002
  -0.01963725  0.21243930  0.15174236       0.002
   0.03391888  0.22315053  0.23743216       0.002
   0.03034847  0.24814339  0.20172808       0.002
   0.02677806  0.27313625  0.16602399       0.002
   0.08747501  0.23386175  0.32312197       0.002
   0.07676378  0.30884033  0.21600971       0.002
   0.07319337  0.33383319  0.18030563       0.002
   0.06962296  0.35882605  0.14460154       0.002
   0.13031991  0.31955156  0.30169951       0.002
  -0.07319337  0.07319337  0.13031991       0.001
  -0.07676378  0.09818623  0.09461582       0.002
  -0.01606684  0.05891174  0.25171380       0.002
  -0.01963725  0.08390460  0.21600971       0.002
   0.03034847  0.11960868  0.26599543       0.002
   0.02677806  0.14460154  0.23029135       0.002
   0.02320765  0.16959440  0.19458726       0.002
   0.07676378  0.18030563  0.28027706       0.002
   0.07319337  0.20529849  0.24457298       0.002
   0.06962296  0.23029135  0.20886889       0.002
   0.06605256  0.25528420  0.17316481       0.002
   0.11960868  0.26599543  0.25885461       0.002
   0.11603827  0.29098829  0.22315053       0.002
   0.11246787  0.31598115  0.18744644       0.002
   0.10889746  0.34097401  0.15174236       0.002
  -0.03034847  0.03034847  0.17316481       0.001
  -0.03391888  0.05534133  0.13746073       0.002
  -0.03748929  0.08033419  0.10175664       0.002
   0.02320765  0.04105970  0.25885461       0.002
   0.00892602  0.14103113  0.11603827       0.002
   0.06962296  0.10175664  0.27313625       0.002
   0.06605256  0.12674950  0.23743216       0.002
   0.05177092  0.22672094  0.09461582       0.002
   0.11246787  0.18744644  0.25171380       0.002
   0.10889746  0.21243930  0.21600971       0.002
   0.09818623  0.28741788  0.10889746       0.002
   0.15888318  0.24814339  0.26599543       0.002
   0.15531277  0.27313625  0.23029135       0.002
   0.15174236  0.29812911  0.19458726       0.002
   0.01249643 -0.01249643  0.21600971       0.001
   0.00892602  0.01249643  0.18030563       0.002
   0.00535561  0.03748929  0.14460154       0.002
   0.00178520  0.06248215  0.10889746       0.002
   0.05177092  0.09818623  0.15888318       0.002
   0.04820051  0.12317909  0.12317909       0.002
   0.04463011  0.14817195  0.08747501       0.002
   0.09461582  0.18387604  0.13746073       0.002
   0.09104542  0.20886889  0.10175664       0.002
   0.15174236  0.16959440  0.25885461       0.002
   0.13746073  0.26956584  0.11603827       0.002
   0.13389032  0.29455870  0.08033419       0.002
   0.19458726  0.25528420  0.23743216       0.002
  -0.00892602  0.00892602  0.06605256       0.001
  -0.01249643  0.03391888  0.03034847       0.002
   0.04820051 -0.00535561  0.18744644       0.002
   0.04463011  0.01963725  0.15174236       0.002
   0.09461582  0.05534133  0.20172808       0.002
   0.09104542  0.08033419  0.16602399       0.002
   0.08747501  0.10532705  0.13031991       0.002
   0.13746073  0.14103113  0.18030563       0.002
   0.13389032  0.16602399  0.14460154       0.002
   0.13031991  0.19101685  0.10889746       0.002
   0.18030563  0.22672094  0.15888318       0.002
   0.17673522  0.25171380  0.12317909       0.002
   0.17316481  0.27670666  0.08747501       0.002
   0.03391888 -0.03391888  0.10889746       0.001
   0.06605256 -0.04463011  0.19458726       0.002
   0.06248215 -0.01963725  0.15888318       0.002
   0.04820051  0.08033419  0.01606684       0.002
  -0.01963725  0.16959440  0.30169951       0.002
  -0.02320765  0.19458726  0.26599543       0.002
   0.02677806  0.23029135  0.31598115       0.002
   0.02320765  0.25528420  0.28027706       0.002
   0.01963725  0.28027706  0.24457298       0.002
   0.06962296  0.31598115  0.29455870       0.002
   0.06605256  0.34097401  0.25885461       0.002
   0.06248215  0.36596687  0.22315053       0.002
  -0.08033419  0.08033419  0.20886889       0.001
  -0.08390460  0.10532705  0.17316481       0.002
  -0.08747501  0.13031991  0.13746073       0.002
  -0.03748929  0.16602399  0.18744644       0.002
  -0.04105970  0.19101685  0.15174236       0.002
   0.01963725  0.15174236  0.30884033       0.002
   0.00535561  0.25171380  0.16602399       0.002
   0.06605256  0.21243930  0.32312197       0.002
   0.06248215  0.23743216  0.28741788       0.002
   0.04820051  0.33740360  0.14460154       0.002
   0.10889746  0.29812911  0.30169951       0.002
   0.10532705  0.32312197  0.26599543       0.002
  -0.03748929  0.03748929  0.25171380       0.001
  -0.04105970  0.06248215  0.21600971       0.002
  -0.04463011  0.08747501  0.18030563       0.002
   0.00178520  0.14817195  0.19458726       0.002
  -0.00178520  0.17316481  0.15888318       0.002
   0.04820051  0.20886889  0.20886889       0.002
   0.04463011  0.23386175  0.17316481       0.002
   0.04105970  0.25885461  0.13746073       0.002
   0.09104542  0.29455870  0.18744644       0.002
   0.08747501  0.31955156  0.15174236       0.002
   0.14817195  0.28027706  0.30884033       0.002
  -0.05891174  0.05891174  0.10175664       0.001
   0.00178520  0.01963725  0.25885461       0.002
  -0.00178520  0.04463011  0.22315053       0.002
   0.04463011  0.10532705  0.23743216       0.002
   0.04105970  0.13031991  0.20172808       0.002
   0.08747501  0.19101685  0.21600971       0.002
   0.08390460  0.21600971  0.18030563       0.002
   0.13389032  0.25171380  0.23029135       0.002
   0.13031991  0.27670666  0.19458726       0.002
   0.12674950  0.30169951  0.15888318       0.002
  -0.01606684  0.01606684  0.14460154       0.001
  -0.01963725  0.04105970  0.10889746       0.002
  -0.02320765  0.06605256  0.07319337       0.002
   0.02320765  0.12674950  0.08747501       0.002
   0.08390460  0.08747501  0.24457298       0.002
   0.13031991  0.14817195  0.25885461       0.002
   0.12674950  0.17316481  0.22315053       0.002
   0.17316481  0.23386175  0.23743216       0.002
   0.16959440  0.25885461  0.20172808       0.002
   0.02677806 -0.02677806  0.18744644       0.001
   0.02320765 -0.00178520  0.15174236       0.002
   0.01963725  0.02320765  0.11603827       0.002
   0.06605256  0.08390460  0.13031991       0.002
   0.06248215  0.10889746  0.09461582       0.002
   0.10889746  0.16959440  0.10889746       0.002
   0.10532705  0.19458726  0.07319337       0.002
   0.15174236  0.25528420  0.08747501       0.002
   0.21243930  0.21600971  0.24457298       0.002
   0.00535561 -0.00535561  0.03748929       0.001
   0.03748929 -0.01606684  0.12317909       0.002
   0.08390460  0.04463011  0.13746073       0.002
   0.08033419  0.06962296  0.10175664       0.002
  -0.00178520  0.25885461  0.24457298       0.002
  -0.00535561  0.28384747  0.20886889       0.002
   0.04105970  0.34454442  0.22315053       0.002
   0.03748929  0.36953728  0.18744644       0.002
  -0.10889746  0.10889746  0.13746073       0.001
  -0.04820051  0.06962296  0.29455870       0.002
  -0.00178520  0.13031991  0.30884033       0.002
  -0.00535561  0.15531277  0.27313625       0.002
   0.04105970  0.21600971  0.28741788       0.002
   0.03748929  0.24100257  0.25171380       0.002
   0.08390460  0.30169951  0.26599543       0.002
   0.08033419  0.32669237  0.23029135       0.002
  -0.06605256  0.06605256  0.18030563       0.001
  -0.06962296  0.09104542  0.14460154       0.002
  -0.02677806  0.17673522  0.12317909       0.002
   0.01963725  0.23743216  0.13746073       0.002
   0.08033419  0.19815767  0.29455870       0.002
   0.12674950  0.25885461  0.30884033       0.002
   0.12317909  0.28384747  0.27313625       0.002
  -0.02320765  0.02320765  0.22315053       0.001
  -0.02677806  0.04820051  0.18744644       0.002
   0.01606684  0.13389032  0.16602399       0.002
   0.05891174  0.21958012  0.14460154       0.002
   0.10532705  0.28027706  0.15888318       0.002
   0.10175664  0.30526992  0.12317909       0.002
  -0.04463011  0.04463011  0.07319337       0.001
   0.01606684  0.00535561  0.23029135       0.002
   0.05891174  0.09104542  0.20886889       0.002
   0.10175664  0.17673522  0.18744644       0.002
   0.14460154  0.26242502  0.16602399       0.002
  -0.00178520  0.00178520  0.11603827       0.001
  -0.00535561  0.02677806  0.08033419       0.002
   0.03748929  0.11246787  0.05891174       0.002
   0.14460154  0.13389032  0.23029135       0.002
   0.18744644  0.21958012  0.20886889       0.002
   0.04105970 -0.04105970  0.15888318       0.001
   0.05534133  0.07319337  0.06605256       0.002
   0.09818623  0.15888318  0.04463011       0.002
   0.07676378  0.30884033  0.34454442       0.002
  -0.07319337  0.07319337  0.25885461       0.001
  -0.03034847  0.15888318  0.23743216       0.002
   0.01249643  0.24457298  0.21600971       0.002
   0.05534133  0.33026278  0.19458726       0.002
  -0.09461582  0.09461582  0.10889746       0.001
   0.05534133  0.20172808  0.25885461       0.002
   0.09818623  0.28741788  0.23743216       0.002
  -0.05177092  0.05177092  0.15174236       0.001
   0.14103113  0.24457298  0.28027706       0.002
  -0.00892602  0.00892602  0.19458726       0.001
  -0.03034847  0.03034847  0.04463011       0.001
   0.01249643 -0.01249643  0.08747501       0.001
 
 k-points in reciprocal lattice and weights: Server version 2018.05.22. K-point grid 
   0.04166667  0.95138889  0.13888889       0.002
   0.08333333  0.94444444  0.94444444       0.002
   0.12500000  0.93750000  0.75000000       0.002
   0.16666667  0.93055556  0.55555556       0.002
   0.20833333  0.92361111  0.36111111       0.002
   0.25000000  0.91666667  0.16666667       0.002
   0.29166667  0.90972222  0.97222222       0.002
   0.33333333  0.90277778  0.77777778       0.002
   0.37500000  0.89583333  0.58333333       0.002
   0.41666667  0.88888889  0.38888889       0.002
   0.45833333  0.88194444  0.19444444       0.002
   0.50000000  0.87500000  0.00000000       0.002
   0.54166667  0.86805556  0.80555556       0.002
   0.58333333  0.86111111  0.61111111       0.002
   0.62500000  0.85416667  0.41666667       0.002
   0.66666667  0.84722222  0.22222222       0.002
   0.70833333  0.84027778  0.02777778       0.002
   0.75000000  0.83333333  0.83333333       0.002
   0.79166667  0.82638889  0.63888889       0.002
   0.83333333  0.81944444  0.44444444       0.002
   0.87500000  0.81250000  0.25000000       0.002
   0.91666667  0.80555556  0.05555556       0.002
   0.95833333  0.79861111  0.86111111       0.002
   0.00000000  0.79166667  0.66666667       0.001
   0.04166667  0.78472222  0.47222222       0.002
   0.08333333  0.77777778  0.27777778       0.002
   0.12500000  0.77083333  0.08333333       0.002
   0.16666667  0.76388889  0.88888889       0.002
   0.20833333  0.75694444  0.69444444       0.002
   0.25000000  0.75000000  0.50000000       0.002
   0.29166667  0.74305556  0.30555556       0.002
   0.33333333  0.73611111  0.11111111       0.002
   0.37500000  0.72916667  0.91666667       0.002
   0.41666667  0.72222222  0.72222222       0.002
   0.45833333  0.71527778  0.52777778       0.002
   0.50000000  0.70833333  0.33333333       0.002
   0.54166667  0.70138889  0.13888889       0.002
   0.58333333  0.69444444  0.94444444       0.002
   0.62500000  0.68750000  0.75000000       0.002
   0.66666667  0.68055556  0.55555556       0.002
   0.70833333  0.67361111  0.36111111       0.002
   0.75000000  0.66666667  0.16666667       0.002
   0.79166667  0.65972222  0.97222222       0.002
   0.83333333  0.65277778  0.77777778       0.002
   0.87500000  0.64583333  0.58333333       0.002
   0.91666667  0.63888889  0.38888889       0.002
   0.95833333  0.63194444  0.19444444       0.002
   0.00000000  0.62500000  0.00000000       0.001
   0.04166667  0.61805556  0.80555556       0.002
   0.08333333  0.61111111  0.61111111       0.002
   0.12500000  0.60416667  0.41666667       0.002
   0.16666667  0.59722222  0.22222222       0.002
   0.20833333  0.59027778  0.02777778       0.002
   0.29166667  0.57638889  0.63888889       0.002
   0.33333333  0.56944444  0.44444444       0.002
   0.37500000  0.56250000  0.25000000       0.002
   0.41666667  0.55555556  0.05555556       0.002
   0.45833333  0.54861111  0.86111111       0.002
   0.50000000  0.54166667  0.66666667       0.002
   0.54166667  0.53472222  0.47222222       0.002
   0.58333333  0.52777778  0.27777778       0.002
   0.62500000  0.52083333  0.08333333       0.002
   0.66666667  0.51388889  0.88888889       0.002
   0.70833333  0.50694444  0.69444444       0.002
   0.75000000  0.50000000  0.50000000       0.002
   0.79166667  0.49305556  0.30555556       0.002
   0.83333333  0.48611111  0.11111111       0.002
   0.87500000  0.47916667  0.91666667       0.002
   0.91666667  0.47222222  0.72222222       0.002
   0.95833333  0.46527778  0.52777778       0.002
   0.00000000  0.45833333  0.33333333       0.001
   0.04166667  0.45138889  0.13888889       0.002
   0.08333333  0.44444444  0.94444444       0.002
   0.12500000  0.43750000  0.75000000       0.002
   0.16666667  0.43055556  0.55555556       0.002
   0.20833333  0.42361111  0.36111111       0.002
   0.29166667  0.40972222  0.97222222       0.002
   0.33333333  0.40277778  0.77777778       0.002
   0.37500000  0.39583333  0.58333333       0.002
   0.41666667  0.38888889  0.38888889       0.002
   0.45833333  0.38194444  0.19444444       0.002
   0.54166667  0.36805556  0.80555556       0.002
   0.58333333  0.36111111  0.61111111       0.002
   0.62500000  0.35416667  0.41666667       0.002
   0.66666667  0.34722222  0.22222222       0.002
   0.70833333  0.34027778  0.02777778       0.002
   0.75000000  0.33333333  0.83333333       0.002
   0.79166667  0.32638889  0.63888889       0.002
   0.83333333  0.31944444  0.44444444       0.002
   0.87500000  0.31250000  0.25000000       0.002
   0.91666667  0.30555556  0.05555556       0.002
   0.95833333  0.29861111  0.86111111       0.002
   0.00000000  0.29166667  0.66666667       0.001
   0.04166667  0.28472222  0.47222222       0.002
   0.08333333  0.27777778  0.27777778       0.002
   0.12500000  0.27083333  0.08333333       0.002
   0.16666667  0.26388889  0.88888889       0.002
   0.20833333  0.25694444  0.69444444       0.002
   0.29166667  0.24305556  0.30555556       0.002
   0.33333333  0.23611111  0.11111111       0.002
   0.37500000  0.22916667  0.91666667       0.002
   0.41666667  0.22222222  0.72222222       0.002
   0.45833333  0.21527778  0.52777778       0.002
   0.54166667  0.20138889  0.13888889       0.002
   0.58333333  0.19444444  0.94444444       0.002
   0.62500000  0.18750000  0.75000000       0.002
   0.66666667  0.18055556  0.55555556       0.002
   0.70833333  0.17361111  0.36111111       0.002
   0.79166667  0.15972222  0.97222222       0.002
   0.83333333  0.15277778  0.77777778       0.002
   0.87500000  0.14583333  0.58333333       0.002
   0.91666667  0.13888889  0.38888889       0.002
   0.95833333  0.13194444  0.19444444       0.002
   0.00000000  0.12500000  0.00000000       0.001
   0.04166667  0.11805556  0.80555556       0.002
   0.08333333  0.11111111  0.61111111       0.002
   0.12500000  0.10416667  0.41666667       0.002
   0.16666667  0.09722222  0.22222222       0.002
   0.20833333  0.09027778  0.02777778       0.002
   0.29166667  0.07638889  0.63888889       0.002
   0.33333333  0.06944444  0.44444444       0.002
   0.37500000  0.06250000  0.25000000       0.002
   0.41666667  0.05555556  0.05555556       0.002
   0.45833333  0.04861111  0.86111111       0.002
   0.54166667  0.03472222  0.47222222       0.002
   0.58333333  0.02777778  0.27777778       0.002
   0.62500000  0.02083333  0.08333333       0.002
   0.66666667  0.01388889  0.88888889       0.002
   0.70833333  0.00694444  0.69444444       0.002
   0.79166667  0.99305556  0.30555556       0.002
   0.83333333  0.98611111  0.11111111       0.002
   0.87500000  0.97916667  0.91666667       0.002
   0.91666667  0.97222222  0.72222222       0.002
   0.95833333  0.96527778  0.52777778       0.002
   0.00000000  0.95833333  0.33333333       0.001
   0.04166667  0.97916667  0.75000000       0.002
   0.08333333  0.97222222  0.55555556       0.002
   0.12500000  0.96527778  0.36111111       0.002
   0.16666667  0.95833333  0.16666667       0.002
   0.25000000  0.94444444  0.77777778       0.002
   0.29166667  0.93750000  0.58333333       0.002
   0.33333333  0.93055556  0.38888889       0.002
   0.37500000  0.92361111  0.19444444       0.002
   0.41666667  0.91666667  0.00000000       0.002
   0.50000000  0.90277778  0.61111111       0.002
   0.54166667  0.89583333  0.41666667       0.002
   0.58333333  0.88888889  0.22222222       0.002
   0.62500000  0.88194444  0.02777778       0.002
   0.66666667  0.87500000  0.83333333       0.002
   0.75000000  0.86111111  0.44444444       0.002
   0.79166667  0.85416667  0.25000000       0.002
   0.83333333  0.84722222  0.05555556       0.002
   0.87500000  0.84027778  0.86111111       0.002
   0.91666667  0.83333333  0.66666667       0.002
   0.00000000  0.81944444  0.27777778       0.001
   0.04166667  0.81250000  0.08333333       0.002
   0.08333333  0.80555556  0.88888889       0.002
   0.12500000  0.79861111  0.69444444       0.002
   0.16666667  0.79166667  0.50000000       0.002
   0.25000000  0.77777778  0.11111111       0.002
   0.29166667  0.77083333  0.91666667       0.002
   0.33333333  0.76388889  0.72222222       0.002
   0.37500000  0.75694444  0.52777778       0.002
   0.41666667  0.75000000  0.33333333       0.002
   0.50000000  0.73611111  0.94444444       0.002
   0.54166667  0.72916667  0.75000000       0.002
   0.58333333  0.72222222  0.55555556       0.002
   0.62500000  0.71527778  0.36111111       0.002
   0.66666667  0.70833333  0.16666667       0.002
   0.75000000  0.69444444  0.77777778       0.002
   0.79166667  0.68750000  0.58333333       0.002
   0.83333333  0.68055556  0.38888889       0.002
   0.87500000  0.67361111  0.19444444       0.002
   0.91666667  0.66666667  1.00000000       0.002
   0.00000000  0.65277778  0.61111111       0.001
   0.04166667  0.64583333  0.41666667       0.002
   0.08333333  0.63888889  0.22222222       0.002
   0.12500000  0.63194444  0.02777778       0.002
   0.16666667  0.62500000  0.83333333       0.002
   0.29166667  0.60416667  0.25000000       0.002
   0.33333333  0.59722222  0.05555556       0.002
   0.37500000  0.59027778  0.86111111       0.002
   0.41666667  0.58333333  0.66666667       0.002
   0.50000000  0.56944444  0.27777778       0.002
   0.54166667  0.56250000  0.08333333       0.002
   0.58333333  0.55555556  0.88888889       0.002
   0.62500000  0.54861111  0.69444444       0.002
   0.66666667  0.54166667  0.50000000       0.002
   0.75000000  0.52777778  0.11111111       0.002
   0.79166667  0.52083333  0.91666667       0.002
   0.83333333  0.51388889  0.72222222       0.002
   0.87500000  0.50694444  0.52777778       0.002
   0.91666667  0.50000000  0.33333333       0.002
   0.00000000  0.48611111  0.94444444       0.001
   0.04166667  0.47916667  0.75000000       0.002
   0.08333333  0.47222222  0.55555556       0.002
   0.12500000  0.46527778  0.36111111       0.002
   0.16666667  0.45833333  0.16666667       0.002
   0.29166667  0.43750000  0.58333333       0.002
   0.33333333  0.43055556  0.38888889       0.002
   0.37500000  0.42361111  0.19444444       0.002
   0.41666667  0.41666667  0.00000000       0.002
   0.54166667  0.39583333  0.41666667       0.002
   0.58333333  0.38888889  0.22222222       0.002
   0.62500000  0.38194444  0.02777778       0.002
   0.66666667  0.37500000  0.83333333       0.002
   0.75000000  0.36111111  0.44444444       0.002
   0.79166667  0.35416667  0.25000000       0.002
   0.83333333  0.34722222  0.05555556       0.002
   0.87500000  0.34027778  0.86111111       0.002
   0.91666667  0.33333333  0.66666667       0.002
   0.00000000  0.31944444  0.27777778       0.001
   0.04166667  0.31250000  0.08333333       0.002
   0.08333333  0.30555556  0.88888889       0.002
   0.12500000  0.29861111  0.69444444       0.002
   0.16666667  0.29166667  0.50000000       0.002
   0.29166667  0.27083333  0.91666667       0.002
   0.33333333  0.26388889  0.72222222       0.002
   0.37500000  0.25694444  0.52777778       0.002
   0.41666667  0.25000000  0.33333333       0.002
   0.54166667  0.22916667  0.75000000       0.002
   0.58333333  0.22222222  0.55555556       0.002
   0.62500000  0.21527778  0.36111111       0.002
   0.66666667  0.20833333  0.16666667       0.002
   0.79166667  0.18750000  0.58333333       0.002
   0.83333333  0.18055556  0.38888889       0.002
   0.87500000  0.17361111  0.19444444       0.002
   0.91666667  0.16666667  0.00000000       0.002
   0.00000000  0.15277778  0.61111111       0.001
   0.04166667  0.14583333  0.41666667       0.002
   0.08333333  0.13888889  0.22222222       0.002
   0.12500000  0.13194444  0.02777778       0.002
   0.16666667  0.12500000  0.83333333       0.002
   0.29166667  0.10416667  0.25000000       0.002
   0.33333333  0.09722222  0.05555556       0.002
   0.37500000  0.09027778  0.86111111       0.002
   0.41666667  0.08333333  0.66666667       0.002
   0.54166667  0.06250000  0.08333333       0.002
   0.58333333  0.05555556  0.88888889       0.002
   0.62500000  0.04861111  0.69444444       0.002
   0.66666667  0.04166667  0.50000000       0.002
   0.79166667  0.02083333  0.91666667       0.002
   0.83333333  0.01388889  0.72222222       0.002
   0.87500000  0.00694444  0.52777778       0.002
   0.91666667  0.00000000  0.33333333       0.002
   0.00000000  0.98611111  0.94444444       0.001
   0.04166667  0.00694444  0.36111111       0.002
   0.08333333  0.00000000  0.16666667       0.002
   0.12500000  0.99305556  0.97222222       0.002
   0.25000000  0.97222222  0.38888889       0.002
   0.29166667  0.96527778  0.19444444       0.002
   0.33333333  0.95833333  0.00000000       0.002
   0.37500000  0.95138889  0.80555556       0.002
   0.50000000  0.93055556  0.22222222       0.002
   0.54166667  0.92361111  0.02777778       0.002
   0.58333333  0.91666667  0.83333333       0.002
   0.62500000  0.90972222  0.63888889       0.002
   0.75000000  0.88888889  0.05555556       0.002
   0.79166667  0.88194444  0.86111111       0.002
   0.83333333  0.87500000  0.66666667       0.002
   0.87500000  0.86805556  0.47222222       0.002
   0.00000000  0.84722222  0.88888889       0.001
   0.04166667  0.84027778  0.69444444       0.002
   0.08333333  0.83333333  0.50000000       0.002
   0.12500000  0.82638889  0.30555556       0.002
   0.25000000  0.80555556  0.72222222       0.002
   0.29166667  0.79861111  0.52777778       0.002
   0.33333333  0.79166667  0.33333333       0.002
   0.37500000  0.78472222  0.13888889       0.002
   0.50000000  0.76388889  0.55555556       0.002
   0.54166667  0.75694444  0.36111111       0.002
   0.58333333  0.75000000  0.16666667       0.002
   0.62500000  0.74305556  0.97222222       0.002
   0.75000000  0.72222222  0.38888889       0.002
   0.79166667  0.71527778  0.19444444       0.002
   0.83333333  0.70833333  0.00000000       0.002
   0.87500000  0.70138889  0.80555556       0.002
   0.00000000  0.68055556  0.22222222       0.001
   0.04166667  0.67361111  0.02777778       0.002
   0.08333333  0.66666667  0.83333333       0.002
   0.12500000  0.65972222  0.63888889       0.002
   0.29166667  0.63194444  0.86111111       0.002
   0.33333333  0.62500000  0.66666667       0.002
   0.37500000  0.61805556  0.47222222       0.002
   0.50000000  0.59722222  0.88888889       0.002
   0.54166667  0.59027778  0.69444444       0.002
   0.58333333  0.58333333  0.50000000       0.002
   0.62500000  0.57638889  0.30555556       0.002
   0.75000000  0.55555556  0.72222222       0.002
   0.79166667  0.54861111  0.52777778       0.002
   0.83333333  0.54166667  0.33333333       0.002
   0.87500000  0.53472222  0.13888889       0.002
   0.00000000  0.51388889  0.55555556       0.001
   0.04166667  0.50694444  0.36111111       0.002
   0.08333333  0.50000000  0.16666667       0.002
   0.12500000  0.49305556  0.97222222       0.002
   0.29166667  0.46527778  0.19444444       0.002
   0.33333333  0.45833333  1.00000000       0.002
   0.37500000  0.45138889  0.80555556       0.002
   0.54166667  0.42361111  0.02777778       0.002
   0.58333333  0.41666667  0.83333333       0.002
   0.62500000  0.40972222  0.63888889       0.002
   0.75000000  0.38888889  0.05555556       0.002
   0.79166667  0.38194444  0.86111111       0.002
   0.83333333  0.37500000  0.66666667       0.002
   0.87500000  0.36805556  0.47222222       0.002
   0.00000000  0.34722222  0.88888889       0.001
   0.04166667  0.34027778  0.69444444       0.002
   0.08333333  0.33333333  0.50000000       0.002
   0.12500000  0.32638889  0.30555556       0.002
   0.29166667  0.29861111  0.52777778       0.002
   0.33333333  0.29166667  0.33333333       0.002
   0.37500000  0.28472222  0.13888889       0.002
   0.54166667  0.25694444  0.36111111       0.002
   0.58333333  0.25000000  0.16666667       0.002
   0.62500000  0.24305556  0.97222222       0.002
   0.79166667  0.21527778  0.19444444       0.002
   0.83333333  0.20833333  0.00000000       0.002
   0.87500000  0.20138889  0.80555556       0.002
   0.00000000  0.18055556  0.22222222       0.001
   0.04166667  0.17361111  0.02777778       0.002
   0.08333333  0.16666667  0.83333333       0.002
   0.12500000  0.15972222  0.63888889       0.002
   0.29166667  0.13194444  0.86111111       0.002
   0.33333333  0.12500000  0.66666667       0.002
   0.37500000  0.11805556  0.47222222       0.002
   0.54166667  0.09027778  0.69444444       0.002
   0.58333333  0.08333333  0.50000000       0.002
   0.62500000  0.07638889  0.30555556       0.002
   0.79166667  0.04861111  0.52777778       0.002
   0.83333333  0.04166667  0.33333333       0.002
   0.87500000  0.03472222  0.13888889       0.002
   0.00000000  0.01388889  0.55555556       0.001
   0.04166667  0.03472222  0.97222222       0.002
   0.08333333  0.02777778  0.77777778       0.002
   0.25000000  0.00000000  0.00000000       0.002
   0.29166667  0.99305556  0.80555556       0.002
   0.33333333  0.98611111  0.61111111       0.002
   0.50000000  0.95833333  0.83333333       0.002
   0.54166667  0.95138889  0.63888889       0.002
   0.58333333  0.94444444  0.44444444       0.002
   0.75000000  0.91666667  0.66666667       0.002
   0.79166667  0.90972222  0.47222222       0.002
   0.83333333  0.90277778  0.27777778       0.002
   0.00000000  0.87500000  0.50000000       0.001
   0.04166667  0.86805556  0.30555556       0.002
   0.08333333  0.86111111  0.11111111       0.002
   0.25000000  0.83333333  0.33333333       0.002
   0.29166667  0.82638889  0.13888889       0.002
   0.33333333  0.81944444  0.94444444       0.002
   0.50000000  0.79166667  0.16666667       0.002
   0.54166667  0.78472222  0.97222222       0.002
   0.58333333  0.77777778  0.77777778       0.002
   0.75000000  0.75000000  0.00000000       0.002
   0.79166667  0.74305556  0.80555556       0.002
   0.83333333  0.73611111  0.61111111       0.002
   0.00000000  0.70833333  0.83333333       0.001
   0.04166667  0.70138889  0.63888889       0.002
   0.08333333  0.69444444  0.44444444       0.002
   0.29166667  0.65972222  0.47222222       0.002
   0.33333333  0.65277778  0.27777778       0.002
   0.50000000  0.62500000  0.50000000       0.002
   0.54166667  0.61805556  0.30555556       0.002
   0.58333333  0.61111111  0.11111111       0.002
   0.75000000  0.58333333  0.33333333       0.002
   0.79166667  0.57638889  0.13888889       0.002
   0.83333333  0.56944444  0.94444444       0.002
   0.00000000  0.54166667  0.16666667       0.001
   0.04166667  0.53472222  0.97222222       0.002
   0.08333333  0.52777778  0.77777778       0.002
   0.29166667  0.49305556  0.80555556       0.002
   0.33333333  0.48611111  0.61111111       0.002
   0.54166667  0.45138889  0.63888889       0.002
   0.58333333  0.44444444  0.44444444       0.002
   0.75000000  0.41666667  0.66666667       0.002
   0.79166667  0.40972222  0.47222222       0.002
   0.83333333  0.40277778  0.27777778       0.002
   0.00000000  0.37500000  0.50000000       0.001
   0.04166667  0.36805556  0.30555556       0.002
   0.08333333  0.36111111  0.11111111       0.002
   0.29166667  0.32638889  0.13888889       0.002
   0.33333333  0.31944444  0.94444444       0.002
   0.54166667  0.28472222  0.97222222       0.002
   0.58333333  0.27777778  0.77777778       0.002
   0.79166667  0.24305556  0.80555556       0.002
   0.83333333  0.23611111  0.61111111       0.002
   0.00000000  0.20833333  0.83333333       0.001
   0.04166667  0.20138889  0.63888889       0.002
   0.08333333  0.19444444  0.44444444       0.002
   0.29166667  0.15972222  0.47222222       0.002
   0.33333333  0.15277778  0.27777778       0.002
   0.54166667  0.11805556  0.30555556       0.002
   0.58333333  0.11111111  0.11111111       0.002
   0.79166667  0.07638889  0.13888889       0.002
   0.83333333  0.06944444  0.94444444       0.002
   0.00000000  0.04166667  0.16666667       0.001
   0.04166667  0.06250000  0.58333333       0.002
   0.25000000  0.02777778  0.61111111       0.002
   0.29166667  0.02083333  0.41666667       0.002
   0.50000000  0.98611111  0.44444444       0.002
   0.54166667  0.97916667  0.25000000       0.002
   0.75000000  0.94444444  0.27777778       0.002
   0.79166667  0.93750000  0.08333333       0.002
   0.00000000  0.90277778  0.11111111       0.001
   0.04166667  0.89583333  0.91666667       0.002
   0.25000000  0.86111111  0.94444444       0.002
   0.29166667  0.85416667  0.75000000       0.002
   0.50000000  0.81944444  0.77777778       0.002
   0.54166667  0.81250000  0.58333333       0.002
   0.75000000  0.77777778  0.61111111       0.002
   0.79166667  0.77083333  0.41666667       0.002
   0.00000000  0.73611111  0.44444444       0.001
   0.04166667  0.72916667  0.25000000       0.002
   0.29166667  0.68750000  0.08333333       0.002
   0.50000000  0.65277778  0.11111111       0.002
   0.54166667  0.64583333  0.91666667       0.002
   0.75000000  0.61111111  0.94444444       0.002
   0.79166667  0.60416667  0.75000000       0.002
   0.00000000  0.56944444  0.77777778       0.001
   0.04166667  0.56250000  0.58333333       0.002
   0.29166667  0.52083333  0.41666667       0.002
   0.54166667  0.47916667  0.25000000       0.002
   0.75000000  0.44444444  0.27777778       0.002
   0.79166667  0.43750000  0.08333333       0.002
   0.00000000  0.40277778  0.11111111       0.001
   0.04166667  0.39583333  0.91666667       0.002
   0.29166667  0.35416667  0.75000000       0.002
   0.54166667  0.31250000  0.58333333       0.002
   0.79166667  0.27083333  0.41666667       0.002
   0.00000000  0.23611111  0.44444444       0.001
   0.04166667  0.22916667  0.25000000       0.002
   0.29166667  0.18750000  0.08333333       0.002
   0.54166667  0.14583333  0.91666667       0.002
   0.79166667  0.10416667  0.75000000       0.002
   0.00000000  0.06944444  0.77777778       0.001
   0.25000000  0.05555556  0.22222222       0.002
   0.50000000  0.01388889  0.05555556       0.002
   0.75000000  0.97222222  0.88888889       0.002
   0.00000000  0.93055556  0.72222222       0.001
   0.25000000  0.88888889  0.55555556       0.002
   0.50000000  0.84722222  0.38888889       0.002
   0.75000000  0.80555556  0.22222222       0.002
   0.00000000  0.76388889  0.05555556       0.001
   0.50000000  0.68055556  0.72222222       0.002
   0.75000000  0.63888889  0.55555556       0.002
   0.00000000  0.59722222  0.38888889       0.001
   0.75000000  0.47222222  0.88888889       0.002
   0.00000000  0.43055556  0.72222222       0.001
   0.00000000  0.26388889  0.05555556       0.001
   0.00000000  0.09722222  0.38888889       0.001
 
 position of ions in fractional coordinates (direct lattice) 
   0.00000000  0.00000000  0.00000000
   0.75000000  0.50000000  0.25000000
   0.50000000  0.00000000  0.50000000
   0.25000000  0.50000000  0.75000000
 
 position of ions in cartesian coordinates  (Angst):
   0.00000000  0.00000000  0.00000000
  -0.00000000  1.94500000  1.94500000
   1.94500000  0.00000000  1.94500000
   0.00000000  0.00000000  3.89000000
 


--------------------------------------------------------------------------------------------------------


 k-point  1 :   0.0417 0.9514 0.1389  plane waves:     450
 k-point  2 :   0.0833 0.9444 0.9444  plane waves:     449
 k-point  3 :   0.1250 0.9375 0.7500  plane waves:     451
 k-point  4 :   0.1667 0.9306 0.5556  plane waves:     445
 k-point  5 :   0.2083 0.9236 0.3611  plane waves:     444
 k-point  6 :   0.2500 0.9167 0.1667  plane waves:     446
 k-point  7 :   0.2917 0.9097 0.9722  plane waves:     444
 k-point  8 :   0.3333 0.9028 0.7778  plane waves:     437
 k-point  9 :   0.3750 0.8958 0.5833  plane waves:     440
 k-point 10 :   0.4167 0.8889 0.3889  plane waves:     441
 k-point 11 :   0.4583 0.8819 0.1944  plane waves:     438
 k-point 12 :   0.5000 0.8750 0.0000  plane waves:     443
 k-point 13 :   0.5417 0.8681 0.8056  plane waves:     441
 k-point 14 :   0.5833 0.8611 0.6111  plane waves:     446
 k-point 15 :   0.6250 0.8542 0.4167  plane waves:     447
 k-point 16 :   0.6667 0.8472 0.2222  plane waves:     444
 k-point 17 :   0.7083 0.8403 0.0278  plane waves:     442
 k-point 18 :   0.7500 0.8333 0.8333  plane waves:     444
 k-point 19 :   0.7917 0.8264 0.6389  plane waves:     441
 k-point 20 :   0.8333 0.8194 0.4444  plane waves:     447
 k-point 21 :   0.8750 0.8125 0.2500  plane waves:     455
 k-point 22 :   0.9167 0.8056 0.0556  plane waves:     448
 k-point 23 :   0.9583 0.7986 0.8611  plane waves:     448
 k-point 24 :   0.0000 0.7917 0.6667  plane waves:     446
 k-point 25 :   0.0417 0.7847 0.4722  plane waves:     450
 k-point 26 :   0.0833 0.7778 0.2778  plane waves:     452
 k-point 27 :   0.1250 0.7708 0.0833  plane waves:     447
 k-point 28 :   0.1667 0.7639 0.8889  plane waves:     449
 k-point 29 :   0.2083 0.7569 0.6944  plane waves:     443
 k-point 30 :   0.2500 0.7500 0.5000  plane waves:     439
 k-point 31 :   0.2917 0.7431 0.3056  plane waves:     440
 k-point 32 :   0.3333 0.7361 0.1111  plane waves:     444
 k-point 33 :   0.3750 0.7292 0.9167  plane waves:     436
 k-point 34 :   0.4167 0.7222 0.7222  plane waves:     434
 k-point 35 :   0.4583 0.7153 0.5278  plane waves:     447
 k-point 36 :   0.5000 0.7083 0.3333  plane waves:     443
 k-point 37 :   0.5417 0.7014 0.1389  plane waves:     442
 k-point 38 :   0.5833 0.6944 0.9444  plane waves:     443
 k-point 39 :   0.6250 0.6875 0.7500  plane waves:     440
 k-point 40 :   0.6667 0.6806 0.5556  plane waves:     450
 k-point 41 :   0.7083 0.6736 0.3611  plane waves:     447
 k-point 42 :   0.7500 0.6667 0.1667  plane waves:     448
 k-point 43 :   0.7917 0.6597 0.9722  plane waves:     448
 k-point 44 :   0.8333 0.6528 0.7778  plane waves:     444
 k-point 45 :   0.8750 0.6458 0.5833  plane waves:     445
 k-point 46 :   0.9167 0.6389 0.3889  plane waves:     447
 k-point 47 :   0.9583 0.6319 0.1944  plane waves:     447
 k-point 48 :   0.0000 0.6250 0.0000  plane waves:     456
 k-point 49 :   0.0417 0.6181 0.8056  plane waves:     449
 k-point 50 :   0.0833 0.6111 0.6111  plane waves:     446
 k-point 51 :   0.1250 0.6042 0.4167  plane waves:     453
 k-point 52 :   0.1667 0.5972 0.2222  plane waves:     449
 k-point 53 :   0.2083 0.5903 0.0278  plane waves:     442
 k-point 54 :   0.2917 0.5764 0.6389  plane waves:     444
 k-point 55 :   0.3333 0.5694 0.4444  plane waves:     446
 k-point 56 :   0.3750 0.5625 0.2500  plane waves:     447
 k-point 57 :   0.4167 0.5556 0.0556  plane waves:     443
 k-point 58 :   0.4583 0.5486 0.8611  plane waves:     439
 k-point 59 :   0.5000 0.5417 0.6667  plane waves:     446
 k-point 60 :   0.5417 0.5347 0.4722  plane waves:     446
 k-point 61 :   0.5833 0.5278 0.2778  plane waves:     443
 k-point 62 :   0.6250 0.5208 0.0833  plane waves:     440
 k-point 63 :   0.6667 0.5139 0.8889  plane waves:     447
 k-point 64 :   0.7083 0.5069 0.6944  plane waves:     448
 k-point 65 :   0.7500 0.5000 0.5000  plane waves:     451
 k-point 66 :   0.7917 0.4931 0.3056  plane waves:     446
 k-point 67 :   0.8333 0.4861 0.1111  plane waves:     439
 k-point 68 :   0.8750 0.4792 0.9167  plane waves:     448
 k-point 69 :   0.9167 0.4722 0.7222  plane waves:     449
 k-point 70 :   0.9583 0.4653 0.5278  plane waves:     446
 k-point 71 :   0.0000 0.4583 0.3333  plane waves:     445
 k-point 72 :   0.0417 0.4514 0.1389  plane waves:     447
 k-point 73 :   0.0833 0.4444 0.9444  plane waves:     449
 k-point 74 :   0.1250 0.4375 0.7500  plane waves:     446
 k-point 75 :   0.1667 0.4306 0.5556  plane waves:     449
 k-point 76 :   0.2083 0.4236 0.3611  plane waves:     451
 k-point 77 :   0.2917 0.4097 0.9722  plane waves:     447
 k-point 78 :   0.3333 0.4028 0.7778  plane waves:     440
 k-point 79 :   0.3750 0.3958 0.5833  plane waves:     446
 k-point 80 :   0.4167 0.3889 0.3889  plane waves:     444
 k-point 81 :   0.4583 0.3819 0.1944  plane waves:     440
 k-point 82 :   0.5417 0.3681 0.8056  plane waves:     443
 k-point 83 :   0.5833 0.3611 0.6111  plane waves:     444
 k-point 84 :   0.6250 0.3542 0.4167  plane waves:     444
 k-point 85 :   0.6667 0.3472 0.2222  plane waves:     439
 k-point 86 :   0.7083 0.3403 0.0278  plane waves:     441
 k-point 87 :   0.7500 0.3333 0.8333  plane waves:     449
 k-point 88 :   0.7917 0.3264 0.6389  plane waves:     448
 k-point 89 :   0.8333 0.3194 0.4444  plane waves:     443
 k-point 90 :   0.8750 0.3125 0.2500  plane waves:     447
 k-point 91 :   0.9167 0.3056 0.0556  plane waves:     446
 k-point 92 :   0.9583 0.2986 0.8611  plane waves:     452
 k-point 93 :   0.0000 0.2917 0.6667  plane waves:     450
 k-point 94 :   0.0417 0.2847 0.4722  plane waves:     452
 k-point 95 :   0.0833 0.2778 0.2778  plane waves:     447
 k-point 96 :   0.1250 0.2708 0.0833  plane waves:     443
 k-point 97 :   0.1667 0.2639 0.8889  plane waves:     446
 k-point 98 :   0.2083 0.2569 0.6944  plane waves:     451
 k-point 99 :   0.2917 0.2431 0.3056  plane waves:     446
 k-point ** :   0.3333 0.2361 0.1111  plane waves:     444
 k-point ** :   0.3750 0.2292 0.9167  plane waves:     443
 k-point ** :   0.4167 0.2222 0.7222  plane waves:     441
 k-point ** :   0.4583 0.2153 0.5278  plane waves:     449
 k-point ** :   0.5417 0.2014 0.1389  plane waves:     442
 k-point ** :   0.5833 0.1944 0.9444  plane waves:     442
 k-point ** :   0.6250 0.1875 0.7500  plane waves:     432
 k-point ** :   0.6667 0.1806 0.5556  plane waves:     431
 k-point ** :   0.7083 0.1736 0.3611  plane waves:     441
 k-point ** :   0.7917 0.1597 0.9722  plane waves:     448
 k-point ** :   0.8333 0.1528 0.7778  plane waves:     448
 k-point ** :   0.8750 0.1458 0.5833  plane waves:     452
 k-point ** :   0.9167 0.1389 0.3889  plane waves:     448
 k-point ** :   0.9583 0.1319 0.1944  plane waves:     444
 k-point ** :   0.0000 0.1250 0.0000  plane waves:     446
 k-point ** :   0.0417 0.1181 0.8056  plane waves:     449
 k-point ** :   0.0833 0.1111 0.6111  plane waves:     453
 k-point ** :   0.1250 0.1042 0.4167  plane waves:     444
 k-point ** :   0.1667 0.0972 0.2222  plane waves:     449
 k-point ** :   0.2083 0.0903 0.0278  plane waves:     446
 k-point ** :   0.2917 0.0764 0.6389  plane waves:     442
 k-point ** :   0.3333 0.0694 0.4444  plane waves:     443
 k-point ** :   0.3750 0.0625 0.2500  plane waves:     441
 k-point ** :   0.4167 0.0556 0.0556  plane waves:     439
 k-point ** :   0.4583 0.0486 0.8611  plane waves:     440
 k-point ** :   0.5417 0.0347 0.4722  plane waves:     443
 k-point ** :   0.5833 0.0278 0.2778  plane waves:     444
 k-point ** :   0.6250 0.0208 0.0833  plane waves:     444
 k-point ** :   0.6667 0.0139 0.8889  plane waves:     436
 k-point ** :   0.7083 0.0069 0.6944  plane waves:     443
 k-point ** :   0.7917 0.9931 0.3056  plane waves:     446
 k-point ** :   0.8333 0.9861 0.1111  plane waves:     448
 k-point ** :   0.8750 0.9792 0.9167  plane waves:     450
 k-point ** :   0.9167 0.9722 0.7222  plane waves:     449
 k-point ** :   0.9583 0.9653 0.5278  plane waves:     449
 k-point ** :   0.0000 0.9583 0.3333  plane waves:     453
 k-point ** :   0.0417 0.9792 0.7500  plane waves:     448
 k-point ** :   0.0833 0.9722 0.5556  plane waves:     451
 k-point ** :   0.1250 0.9653 0.3611  plane waves:     452
 k-point ** :   0.1667 0.9583 0.1667  plane waves:     451
 k-point ** :   0.2500 0.9444 0.7778  plane waves:     448
 k-point ** :   0.2917 0.9375 0.5833  plane waves:     436
 k-point ** :   0.3333 0.9306 0.3889  plane waves:     441
 k-point ** :   0.3750 0.9236 0.1944  plane waves:     435
 k-point ** :   0.4167 0.9167 0.0000  plane waves:     440
 k-point ** :   0.5000 0.9028 0.6111  plane waves:     449
 k-point ** :   0.5417 0.8958 0.4167  plane waves:     447
 k-point ** :   0.5833 0.8889 0.2222  plane waves:     442
 k-point ** :   0.6250 0.8819 0.0278  plane waves:     444
 k-point ** :   0.6667 0.8750 0.8333  plane waves:     440
 k-point ** :   0.7500 0.8611 0.4444  plane waves:     445
 k-point ** :   0.7917 0.8542 0.2500  plane waves:     450
 k-point ** :   0.8333 0.8472 0.0556  plane waves:     446
 k-point ** :   0.8750 0.8403 0.8611  plane waves:     446
 k-point ** :   0.9167 0.8333 0.6667  plane waves:     445
 k-point ** :   0.0000 0.8194 0.2778  plane waves:     451
 k-point ** :   0.0417 0.8125 0.0833  plane waves:     444
 k-point ** :   0.0833 0.8056 0.8889  plane waves:     448
 k-point ** :   0.1250 0.7986 0.6944  plane waves:     449
 k-point ** :   0.1667 0.7917 0.5000  plane waves:     444
 k-point ** :   0.2500 0.7778 0.1111  plane waves:     449
 k-point ** :   0.2917 0.7708 0.9167  plane waves:     443
 k-point ** :   0.3333 0.7639 0.7222  plane waves:     440
 k-point ** :   0.3750 0.7569 0.5278  plane waves:     435
 k-point ** :   0.4167 0.7500 0.3333  plane waves:     435
 k-point ** :   0.5000 0.7361 0.9444  plane waves:     440
 k-point ** :   0.5417 0.7292 0.7500  plane waves:     439
 k-point ** :   0.5833 0.7222 0.5556  plane waves:     444
 k-point ** :   0.6250 0.7153 0.3611  plane waves:     442
 k-point ** :   0.6667 0.7083 0.1667  plane waves:     444
 k-point ** :   0.7500 0.6944 0.7778  plane waves:     447
 k-point ** :   0.7917 0.6875 0.5833  plane waves:     442
 k-point ** :   0.8333 0.6806 0.3889  plane waves:     451
 k-point ** :   0.8750 0.6736 0.1944  plane waves:     447
 k-point ** :   0.9167 0.6667 1.0000  plane waves:     452
 k-point ** :   0.0000 0.6528 0.6111  plane waves:     449
 k-point ** :   0.0417 0.6458 0.4167  plane waves:     450
 k-point ** :   0.0833 0.6389 0.2222  plane waves:     450
 k-point ** :   0.1250 0.6319 0.0278  plane waves:     446
 k-point ** :   0.1667 0.6250 0.8333  plane waves:     441
 k-point ** :   0.2917 0.6042 0.2500  plane waves:     446
 k-point ** :   0.3333 0.5972 0.0556  plane waves:     444
 k-point ** :   0.3750 0.5903 0.8611  plane waves:     437
 k-point ** :   0.4167 0.5833 0.6667  plane waves:     447
 k-point ** :   0.5000 0.5694 0.2778  plane waves:     446
 k-point ** :   0.5417 0.5625 0.0833  plane waves:     441
 k-point ** :   0.5833 0.5556 0.8889  plane waves:     443
 k-point ** :   0.6250 0.5486 0.6944  plane waves:     443
 k-point ** :   0.6667 0.5417 0.5000  plane waves:     448
 k-point ** :   0.7500 0.5278 0.1111  plane waves:     448
 k-point ** :   0.7917 0.5208 0.9167  plane waves:     445
 k-point ** :   0.8333 0.5139 0.7222  plane waves:     447
 k-point ** :   0.8750 0.5069 0.5278  plane waves:     449
 k-point ** :   0.9167 0.5000 0.3333  plane waves:     449
 k-point ** :   0.0000 0.4861 0.9444  plane waves:     450
 k-point ** :   0.0417 0.4792 0.7500  plane waves:     451
 k-point ** :   0.0833 0.4722 0.5556  plane waves:     453
 k-point ** :   0.1250 0.4653 0.3611  plane waves:     450
 k-point ** :   0.1667 0.4583 0.1667  plane waves:     446
 k-point ** :   0.2917 0.4375 0.5833  plane waves:     446
 k-point ** :   0.3333 0.4306 0.3889  plane waves:     442
 k-point ** :   0.3750 0.4236 0.1944  plane waves:     443
 k-point ** :   0.4167 0.4167 0.0000  plane waves:     445
 k-point ** :   0.5417 0.3958 0.4167  plane waves:     447
 k-point ** :   0.5833 0.3889 0.2222  plane waves:     439
 k-point ** :   0.6250 0.3819 0.0278  plane waves:     440
 k-point ** :   0.6667 0.3750 0.8333  plane waves:     446
 k-point ** :   0.7500 0.3611 0.4444  plane waves:     440
 k-point ** :   0.7917 0.3542 0.2500  plane waves:     442
 k-point ** :   0.8333 0.3472 0.0556  plane waves:     445
 k-point ** :   0.8750 0.3403 0.8611  plane waves:     451
 k-point ** :   0.9167 0.3333 0.6667  plane waves:     452
 k-point ** :   0.0000 0.3194 0.2778  plane waves:     449
 k-point ** :   0.0417 0.3125 0.0833  plane waves:     451
[...]
     11       6.4591      2.00517
     12       7.0750      0.03681
     13       7.1299     -0.05808
     14       7.8571     -0.00000
     15       8.3090     -0.00000

 k-point   437 :       0.5000    0.0139    0.0556
  band No.  band energies     occupation 
      1       2.6690      2.00000
      2       2.7875      2.00000
      3       3.6780      2.00000
      4       4.0321      2.00000
      5       4.3243      2.00000
      6       4.6094      2.00000
      7       5.0944      2.00000
      8       5.2326      2.00000
      9       5.5061      2.00000
     10       5.8921      2.00000
     11       6.2946      2.00009
     12       6.7394      2.02602
     13       7.7038     -0.00000
     14       8.2849     -0.00000
     15       8.4494     -0.00000

 k-point   438 :       0.7500    0.9722    0.8889
  band No.  band energies     occupation 
      1       0.6450      2.00000
      2       3.3441      2.00000
      3       3.7165      2.00000
      4       3.9419      2.00000
      5       4.4899      2.00000
      6       4.8774      2.00000
      7       5.3061      2.00000
      8       5.3693      2.00000
      9       5.5547      2.00000
     10       6.0965      2.00000
     11       6.2603      2.00003
     12       7.1293     -0.05762
     13       7.2251     -0.05358
     14       7.9283     -0.00000
     15       8.0773     -0.00000

 k-point   439 :       0.0000    0.9306    0.7222
  band No.  band energies     occupation 
      1      -0.5682      2.00000
      2       2.1873      2.00000
      3       2.7761      2.00000
      4       3.5249      2.00000
      5       4.3265      2.00000
      6       5.0864      2.00000
      7       5.7680      2.00000
      8       6.2397      2.00002
      9       6.4943      2.01010
     10       6.5506      2.02494
     11       6.8684      1.43025
     12       7.0682      0.05719
     13       7.1244     -0.05333
     14       7.1717     -0.07069
     15       7.5498     -0.00008

 k-point   440 :       0.2500    0.8889    0.5556
  band No.  band energies     occupation 
      1       1.4314      2.00000
      2       2.5312      2.00000
      3       3.5506      2.00000
      4       3.6721      2.00000
      5       4.1898      2.00000
      6       4.6085      2.00000
      7       5.3972      2.00000
      8       5.5473      2.00000
      9       5.9936      2.00000
     10       6.4629      2.00558
     11       6.5463      2.02345
     12       6.8367      1.64950
     13       7.3432     -0.01104
     14       7.4297     -0.00191
     15       8.5354     -0.00000

 k-point   441 :       0.5000    0.8472    0.3889
  band No.  band energies     occupation 
      1       2.2235      2.00000
      2       2.3555      2.00000
      3       2.8695      2.00000
      4       3.0326      2.00000
      5       3.7185      2.00000
      6       3.9528      2.00000
      7       5.2717      2.00000
      8       6.1301      2.00000
      9       6.5892      2.04059
     10       6.8549      1.52868
     11       7.0579      0.09217
     12       7.3646     -0.00746
     13       7.4464     -0.00130
     14       8.6064     -0.00000
     15       9.3076     -0.00000

 k-point   442 :       0.7500    0.8056    0.2222
  band No.  band energies     occupation 
      1       1.2906      2.00000
      2       3.2432      2.00000
      3       3.3504      2.00000
      4       3.7242      2.00000
      5       4.3862      2.00000
      6       4.4626      2.00000
      7       4.8904      2.00000
      8       5.3759      2.00000
      9       5.4944      2.00000
     10       6.4158      2.00205
     11       6.5407      2.02161
     12       7.2780     -0.03012
     13       7.8609     -0.00000
     14       8.1121     -0.00000
     15       8.1826     -0.00000

 k-point   443 :       0.0000    0.7639    0.0556
  band No.  band energies     occupation 
      1      -0.7552      2.00000
      2       1.8746      2.00000
      3       2.6918      2.00000
      4       2.9140      2.00000
      5       3.5700      2.00000
      6       5.4883      2.00000
      7       6.3787      2.00085
      8       6.5904      2.04116
      9       6.7358      2.03166
     10       6.7361      2.03129
     11       6.8970      1.20394
     12       6.9343      0.88983
     13       7.0338      0.19475
     14       7.1652     -0.07091
     15       8.0293     -0.00000

 k-point   444 :       0.5000    0.6806    0.7222
  band No.  band energies     occupation 
      1       2.3675      2.00000
      2       2.6206      2.00000
      3       2.9843      2.00000
      4       3.1947      2.00000
      5       3.8990      2.00000
      6       4.0828      2.00000
      7       5.2800      2.00000
      8       5.8653      2.00000
      9       6.5495      2.02453
     10       6.5890      2.04051
     11       7.0883      0.00299
     12       7.2081     -0.06091
     13       7.4673     -0.00078
     14       7.6555     -0.00000
     15       9.4056     -0.00000

 k-point   445 :       0.7500    0.6389    0.5556
  band No.  band energies     occupation 
      1       2.3462      2.00000
      2       2.6685      2.00000
      3       3.0653      2.00000
      4       3.7666      2.00000
      5       4.1648      2.00000
      6       4.3314      2.00000
      7       4.7576      2.00000
      8       5.2895      2.00000
      9       5.7000      2.00000
     10       6.0342      2.00000
     11       6.5661      2.03074
     12       6.8833      1.31490
     13       7.8087     -0.00000
     14       8.1473     -0.00000
     15       8.4605     -0.00000

 k-point   446 :       0.0000    0.5972    0.3889
  band No.  band energies     occupation 
      1       0.7027      2.00000
      2       1.8194      2.00000
      3       2.8738      2.00000
      4       3.2255      2.00000
      5       3.7390      2.00000
      6       5.0283      2.00000
      7       5.3937      2.00000
      8       5.7847      2.00000
      9       6.2157      2.00001
     10       6.4408      2.00354
     11       7.0456      0.14083
     12       7.2238     -0.05414
     13       7.4141     -0.00271
     14       7.4297     -0.00191
     15       7.9063     -0.00000

 k-point   447 :       0.7500    0.4722    0.8889
  band No.  band energies     occupation 
      1       1.2846      2.00000
      2       3.2401      2.00000
      3       3.3821      2.00000
      4       3.5244      2.00000
      5       4.2249      2.00000
      6       4.5974      2.00000
      7       4.9582      2.00000
      8       5.2183      2.00000
      9       5.7510      2.00000
     10       6.4873      2.00889
     11       6.6508      2.06672
     12       7.1392     -0.06423
     13       7.9007     -0.00000
     14       7.9991     -0.00000
     15       8.0609     -0.00000

 k-point   448 :       0.0000    0.4306    0.7222
  band No.  band energies     occupation 
      1       0.5711      2.00000
      2       1.6388      2.00000
      3       2.6461      2.00000
      4       2.8466      2.00000
      5       3.3949      2.00000
      6       5.3562      2.00000
      7       5.6748      2.00000
      8       5.9790      2.00000
      9       6.6091      2.04976
     10       6.6574      2.06851
     11       6.9071      1.11972
     12       7.0790      0.02573
     13       7.5039     -0.00030
     14       7.5174     -0.00021
     15       8.1924     -0.00000

 k-point   449 :       0.0000    0.2639    0.0556
  band No.  band energies     occupation 
      1      -0.5398      2.00000
      2       1.8057      2.00000
      3       2.5872      2.00000
      4       2.6300      2.00000
      5       3.4708      2.00000
      6       5.8393      2.00000
      7       6.3441      2.00035
      8       6.3791      2.00086
      9       6.7667      1.96551
     10       6.8120      1.78895
     11       6.8777      1.35938
     12       6.9688      0.60985
     13       7.0570      0.09563
     14       7.0626      0.07553
     15       8.3829     -0.00000

 k-point   450 :       0.0000    0.0972    0.3889
  band No.  band energies     occupation 
      1      -0.0374      2.00000
      2       1.8058      2.00000
      3       2.9309      2.00000
      4       3.7530      2.00000
      5       4.4296      2.00000
      6       5.1597      2.00000
      7       5.4737      2.00000
      8       5.8767      2.00000
      9       6.1314      2.00000
     10       6.6008      2.04594
     11       6.8575      1.51049
     12       7.3213     -0.01597
     13       7.4345     -0.00171
     14       7.5034     -0.00031
     15       7.5200     -0.00019


--------------------------------------------------------------------------------------------------------


 soft charge-density along one line, spin component           1
         0         1         2         3         4         5         6         7         8         9
 total charge-density along one line
 
 pseudopotential strength for first ion, spin component:           1
 -1.066   0.001   0.001  -0.001  -0.000  -1.590   0.001   0.001
  0.001  -1.065  -0.001  -0.000   0.001   0.001  -1.589  -0.001
  0.001  -0.001  -1.070   0.001   0.000   0.001  -0.001  -1.593
 -0.001  -0.000   0.001  -1.065   0.001  -0.001  -0.000   0.001
 -0.000   0.001   0.000   0.001  -1.070  -0.000   0.001   0.000
 -1.590   0.001   0.001  -0.001  -0.000  -2.064   0.001   0.001
  0.001  -1.589  -0.001  -0.000   0.001   0.001  -2.063  -0.001
  0.001  -0.001  -1.593   0.001   0.000   0.001  -0.001  -2.066
 -0.001  -0.000   0.001  -1.589   0.001  -0.001  -0.000   0.001
 -0.000   0.001   0.000   0.001  -1.594  -0.000   0.001   0.000
  0.000   0.001  -0.000  -0.001   0.000   0.000   0.000  -0.000
 -0.001  -0.001   0.001   0.001  -0.000  -0.001  -0.001   0.001
 -0.001  -0.005  -0.001   0.000  -0.000  -0.001  -0.005  -0.001
  0.000  -0.000  -0.005   0.000  -0.000   0.000  -0.000  -0.005
  0.001   0.000   0.001  -0.005  -0.000   0.001   0.000   0.001
  0.001   0.006   0.001  -0.000   0.000   0.001   0.006   0.001
 -0.000  -0.000   0.007   0.000   0.000  -0.000  -0.000   0.007
 -0.001  -0.000  -0.001   0.006   0.000  -0.001  -0.000  -0.001
 total augmentation occupancy for first ion, spin component:           1
  0.598   0.050   0.040  -0.050   0.000  -0.771  -0.059  -0.052   0.059   0.000   0.071   0.003   0.016   0.002  -0.016   0.001
  0.050   0.675  -0.014  -0.036   0.030  -0.059  -0.881   0.022   0.057  -0.049   0.074   0.003   0.056   0.014   0.001   0.002
  0.040  -0.014   0.694   0.014   0.000  -0.053   0.022  -0.955  -0.022   0.000  -0.074  -0.003   0.014   0.039  -0.014   0.001
 -0.050  -0.036   0.014   0.675   0.030   0.059   0.057  -0.022  -0.881  -0.049  -0.074  -0.003   0.001  -0.014   0.056   0.000
  0.000   0.030   0.000   0.030   0.601   0.000  -0.050   0.000  -0.050  -0.816   0.000   0.000  -0.005   0.000  -0.005   0.000
 -0.771  -0.059  -0.053   0.059   0.000   1.743   0.064   0.084  -0.064   0.000  -0.074  -0.003  -0.028   0.001   0.028  -0.001
 -0.059  -0.881   0.022   0.057  -0.050   0.064   1.946  -0.039  -0.062   0.077  -0.081  -0.003  -0.061  -0.028  -0.001  -0.002
 -0.052   0.022  -0.955  -0.022   0.000   0.084  -0.039   1.789   0.039   0.000   0.087   0.004  -0.022  -0.049   0.022  -0.001
  0.059   0.057  -0.022  -0.881  -0.050  -0.064  -0.062   0.039   1.946   0.077   0.081   0.003  -0.001   0.028  -0.061   0.000
  0.000  -0.049   0.000  -0.049  -0.816   0.000   0.077   0.000   0.077   1.651   0.000   0.000   0.015   0.000   0.015   0.000
  0.071   0.074  -0.074  -0.074   0.000  -0.074  -0.081   0.087   0.081   0.000   1.964   0.050  -0.003  -0.026   0.003  -0.000
  0.003   0.003  -0.003  -0.003   0.000  -0.003  -0.003   0.004   0.003   0.000   0.050   0.002   0.000  -0.002  -0.000   0.000
  0.016   0.056   0.014   0.001  -0.005  -0.028  -0.061  -0.022  -0.001   0.015  -0.003   0.000   0.399  -0.009  -0.009   0.012
  0.002   0.014   0.039  -0.014   0.000   0.001  -0.028  -0.049   0.028   0.000  -0.026  -0.002  -0.009   0.415   0.009  -0.000
 -0.016   0.001  -0.014   0.056  -0.005   0.028  -0.001   0.022  -0.061   0.015   0.003  -0.000  -0.009   0.009   0.399  -0.000
  0.001   0.002   0.001   0.000   0.000  -0.001  -0.002  -0.001   0.000   0.000  -0.000   0.000   0.012  -0.000  -0.000   0.000
  0.000   0.001   0.002  -0.001   0.000  -0.000  -0.001  -0.002   0.001   0.000  -0.001  -0.000  -0.000   0.013   0.000  -0.000
 -0.001   0.000  -0.001   0.002   0.000   0.001   0.000   0.001  -0.002   0.000   0.000  -0.000  -0.000   0.000   0.012  -0.000


------------------------ aborting loop because EDIFF is reached ----------------------------------------



 ----------------------------------------------------------------------------- 
|                                                                             |
|  ADVICE TO THIS USER RUNNING 'VASP/VAMP'   (HEAR YOUR MASTER'S VOICE ...):  |
|                                                                             |
|      Your highest band is occupied at some k-points! Unless you are         |
|      performing a calculation for an insulator or semiconductor, without    |
|      unoccupied bands, you have included TOO FEW BANDS!! Please increase    |
|      the parameter NBANDS in file INCAR to ensure that the highest band     |
|      is unoccupied at all k-points. It is always recommended to             |
|      include a few unoccupied bands to accelerate the convergence of        |
|      molecular dynamics runs (even for insulators or semiconductors).       |
|      Because the presence of unoccupied bands improves wavefunction         |
|      prediction, and helps to suppress 'band-crossings.'                    |
|      Following all k-points will be listed (with the Fermi weights of       |
|      the highest band given in paranthesis) ... :                           |
|                                                                             |
|                        231       (-0.01218)                                 |
|                                                                             |
|      The total occupancy of band no.    15 is  -0.00006 electrons ...       |
|                                                                             |
 ----------------------------------------------------------------------------- 

    CHARGE:  cpu time    4.3873: real time    4.4017
    FORLOC:  cpu time    0.0180: real time    0.0183
    FORNL :  cpu time    8.8797: real time    8.9069
    STRESS:  cpu time   13.3220: real time   13.3828
    FORCOR:  cpu time    0.1720: real time    0.1732
    FORHAR:  cpu time    0.0460: real time    0.0464
    MIXING:  cpu time    0.0080: real time    0.0079
    OFIELD:  cpu time    0.0000: real time    0.0001

  FORCE on cell =-STRESS in cart. coord.  units (eV):
  Direction    XX          YY          ZZ          XY          YZ          ZX
  --------------------------------------------------------------------------------------
  Alpha Z   137.13857   137.13857   137.13857
  Ewald    -342.27764  -342.27764  -345.89927     1.31743     1.69141    -1.69141
  Hartree     8.27781     8.27781     8.29256    -0.15412    -0.04777     0.04777
  E(xc)     -98.40536   -98.40538   -98.31820    -0.03689    -0.03776     0.03775
  Local      43.09752    43.09753    46.03199    -0.82203    -1.29302     1.29303
  n-local   -23.44560   -23.45340   -23.71756     0.16296     0.08465    -0.05043
  augment    49.90378    49.90385    49.88178     0.01597     0.00863    -0.00852
  Kinetic   227.80446   227.98433   228.44923    -0.13999    -0.19410     0.24102
  Fock        0.00000     0.00000     0.00000     0.00000     0.00000     0.00000
  -------------------------------------------------------------------------------------
  Total       2.17960     2.17960     1.85910     0.34322     0.17141    -0.17141
  in kB      59.32519    59.32519    50.60152     9.34193     4.66549    -4.66549
  external pressure =       56.42 kB  Pullay stress =        0.00 kB


 VOLUME and BASIS-vectors are now :
 -----------------------------------------------------------------------------
  energy-cutoff  :      223.06
  volume of cell :       58.86
      direct lattice vectors                 reciprocal lattice vectors
     1.945000000  1.945000000  0.000000000     0.192802057  0.321336761  0.064267352
    -3.890000000  1.945000000  1.945000000    -0.128534704  0.128534704  0.128534704
     1.945000000 -1.945000000  3.890000000     0.064267352 -0.064267352  0.192802057

  length of vectors
     2.750645379  4.764257550  4.764257550     0.380210783  0.222628639  0.213150693


 FORCES acting on ions
    electron-ion (+dipol)            ewald-force                    non-local-force                 convergence-correction
 -----------------------------------------------------------------------------------------------
   -.726E+00 0.726E+00 -.627E+01   0.873E+00 -.873E+00 0.662E+01   -.106E+00 0.106E+00 0.171E+00   -.770E-04 0.772E-04 -.448E-02
   0.726E+00 -.726E+00 0.627E+01   -.873E+00 0.873E+00 -.662E+01   0.106E+00 -.106E+00 -.171E+00   0.770E-04 -.772E-04 0.448E-02
   0.972E+00 -.972E+00 0.757E+01   -.105E+01 0.105E+01 -.794E+01   0.677E-01 -.677E-01 -.383E+00   0.150E-02 -.150E-02 0.435E-02
   -.972E+00 0.972E+00 -.757E+01   0.105E+01 -.105E+01 0.794E+01   -.677E-01 0.677E-01 0.383E+00   -.150E-02 0.150E-02 -.435E-02
 -----------------------------------------------------------------------------------------------
   -.820E-13 0.494E-13 -.532E-13   0.244E-14 -.222E-15 -.266E-14   0.000E+00 0.139E-16 0.000E+00   0.145E-14 -.583E-15 0.191E-16
 
 
 POSITION                                       TOTAL-FORCE (eV/Angst)
 -----------------------------------------------------------------------------------
      0.00000      0.00000      0.00000         0.041258     -0.041258      0.508499
     -0.00000      1.94500      1.94500        -0.041258      0.041258     -0.508499
      1.94500      0.00000      1.94500        -0.006546      0.006546     -0.744184
      0.00000      0.00000      3.89000         0.006546     -0.006546      0.744184
 -----------------------------------------------------------------------------------
    total drift:                               -0.000000      0.000000     -0.000000


--------------------------------------------------------------------------------------------------------



  FREE ENERGIE OF THE ION-ELECTRON SYSTEM (eV)
  ---------------------------------------------------
  free  energy   TOTEN  =       -42.32599438 eV

  energy  without entropy=      -42.32624021  energy(sigma->0) =      -42.32607632
 


--------------------------------------------------------------------------------------------------------


    POTLOK:  cpu time    0.2190: real time    0.2299


--------------------------------------------------------------------------------------------------------


 writing wavefunctions
     LOOP+:  cpu time  646.8327: real time  649.8029
    4ORBIT:  cpu time    0.0010: real time    0.0000

 total amount of memory used by VASP MPI-rank0   152778. kBytes
=======================================================================

   base      :      30000. kBytes
   nonl-proj :      59256. kBytes
   fftplans  :       2280. kBytes
   grid      :       4048. kBytes
   one-center:         62. kBytes
   wavefun   :      57132. kBytes
 
  
  
 General timing and accounting informations for this job:
 ========================================================
  
                  Total CPU time used (sec):      651.384
                            User time (sec):      651.052
                          System time (sec):        0.332
                         Elapsed time (sec):      654.997
  
                   Maximum memory used (kb):      154312.
                   Average memory used (kb):           0.
  
                          Minor page faults:        39757
                          Major page faults:            5
                 Voluntary context switches:          201
