 vasp.6.0.0 18Apr17 (build Mar 23 2018 09:59:13) complex                        
  
 executed on             LinuxIFC date 2018.06.18  11:00:52
 running on    1 total cores
 distrk:  each k-point on    1 cores,    1 groups
 distr:  one band on NCORES_PER_BAND=   1 cores,    1 groups


--------------------------------------------------------------------------------------------------------


 INCAR:
 POTCAR:    PAW_PBE Co 02Aug2007                  
 POTCAR:    PAW_PBE V 08Apr2002                   
 POTCAR:    PAW_PBE Co 02Aug2007                  
   VRHFIN =Co: d8 s1                                                            
   LEXCH  = PE                                                                  
   EATOM  =   813.3670 eV,   59.7808 Ry                                         
                                                                                
   TITEL  = PAW_PBE Co 02Aug2007                                                
   LULTRA =        F    use ultrasoft PP ?                                      
   IUNSCR =        1    unscreen: 0-lin 1-nonlin 2-no                           
   RPACOR =    2.000    partial core radius                                     
   POMASS =   58.933; ZVAL   =    9.000    mass and valenz                      
   RCORE  =    2.300    outmost cutoff radius                                   
   RWIGS  =    2.460; RWIGS  =    1.302    wigner-seitz radius (au A)           
   ENMAX  =  267.968; ENMIN  =  200.976 eV                                      
   RCLOC  =    1.203    cutoff for local pot                                    
   LCOR   =        T    correct aug charges                                     
   LPAW   =        T    paw PP                                                  
   EAUG   =  477.818                                                            
   DEXC   =    0.000                                                            
   RMAX   =    2.360    core radius for proj-oper                               
   RAUG   =    1.300    factor for augmentation sphere                          
   RDEP   =    2.393    radius for radial grids                                 
   RDEPT  =    1.864    core radius for aug-charge                              
                                                                                
   Atomic configuration                                                         
    9 entries                                                                   
     n  l   j            E        occ.                                          
     1  0  0.50     -7587.6674   2.0000                                         
     2  0  0.50      -893.6084   2.0000                                         
     2  1  1.50      -764.5805   6.0000                                         
     3  0  0.50       -97.5973   2.0000                                         
     3  1  1.50       -60.9648   6.0000                                         
     3  2  2.50        -4.2382   8.0000                                         
     4  0  0.50        -4.3746   1.0000                                         
     4  1  1.50        -4.0817   0.0000                                         
     4  3  2.50        -1.3606   0.0000                                         
   Description                                                                  
     l       E           TYP  RCUT    TYP  RCUT                                 
     2     -4.2382362     23  2.300                                             
     2     -5.5988188     23  2.300                                             
     0     -4.3745797     23  2.300                                             
     0      5.7660125     23  2.300                                             
     1     -2.7211652     23  2.300                                             
     1     16.9860234     23  2.300                                             
  local pseudopotential read in
  partial core-charges read in
  partial kinetic energy density read in
  atomic valenz-charges read in
  non local Contribution for L=           2  read in
    real space projection operators read in
  non local Contribution for L=           2  read in
    real space projection operators read in
  non local Contribution for L=           0  read in
    real space projection operators read in
  non local Contribution for L=           0  read in
    real space projection operators read in
  non local Contribution for L=           1  read in
    real space projection operators read in
  non local Contribution for L=           1  read in
    real space projection operators read in
    PAW grid and wavefunctions read in
 
   number of l-projection  operators is LMAX  =           6
   number of lm-projection operators is LMMAX =          18
 
 POTCAR:    PAW_PBE V 08Apr2002                   
   VRHFIN =V: p6 d4 s1                                                          
   LEXCH  = PE                                                                  
   EATOM  =   170.8679 eV,   12.5584 Ry                                         
                                                                                
   TITEL  = PAW_PBE V 08Apr2002                                                 
   LULTRA =        F    use ultrasoft PP ?                                      
   IUNSCR =        1    unscreen: 0-lin 1-nonlin 2-no                           
   RPACOR =    2.000    partial core radius                                     
   POMASS =   50.941; ZVAL   =    5.000    mass and valenz                      
   RCORE  =    2.700    outmost cutoff radius                                   
   RWIGS  =    2.500; RWIGS  =    1.323    wigner-seitz radius (au A)           
   ENMAX  =  192.543; ENMIN  =  144.408 eV                                      
   RCLOC  =    1.779    cutoff for local pot                                    
   LCOR   =        T    correct aug charges                                     
   LPAW   =        T    paw PP                                                  
   EAUG   =  358.662                                                            
   DEXC   =    0.000                                                            
   RMAX   =    2.768    core radius for proj-oper                               
   RAUG   =    1.300    factor for augmentation sphere                          
   RDEP   =    2.762    radius for radial grids                                 
   RDEPT  =    2.240    core radius for aug-charge                              
                                                                                
   Atomic configuration                                                         
    9 entries                                                                   
     n  l   j            E        occ.                                          
     1  0  0.50     -5360.7193   2.0000                                         
     2  0  0.50      -598.4546   2.0000                                         
     2  1  1.50      -499.0155   6.0000                                         
     3  0  0.50       -66.5711   2.0000                                         
     3  1  1.50       -40.5282   6.0000                                         
     3  2  2.50        -2.4291   4.0000                                         
     4  0  0.50        -3.8743   1.0000                                         
     4  1  0.50        -2.7212   0.0000                                         
     4  3  2.50        -1.3606   0.0000                                         
   Description                                                                  
     l       E           TYP  RCUT    TYP  RCUT                                 
     2     -2.4290901     23  2.700                                             
     2     -3.7896727     23  2.700                                             
     0     -3.8742752     23  2.700                                             
     0     27.2116520     23  2.700                                             
     1     -2.7211652     23  2.700                                             
     1     27.2116520     23  2.700                                             
  local pseudopotential read in
  partial core-charges read in
  partial kinetic energy density read in
  atomic valenz-charges read in
  non local Contribution for L=           2  read in
    real space projection operators read in
  non local Contribution for L=           2  read in
    real space projection operators read in
  non local Contribution for L=           0  read in
    real space projection operators read in
  non local Contribution for L=           0  read in
    real space projection operators read in
  non local Contribution for L=           1  read in
    real space projection operators read in
  non local Contribution for L=           1  read in
    real space projection operators read in
    PAW grid and wavefunctions read in
 
   number of l-projection  operators is LMAX  =           6
   number of lm-projection operators is LMMAX =          18
 
  PAW_PBE Co 02Aug2007                  :
 energy of atom  1       EATOM= -813.3670
 kinetic energy error for atom=    0.0366 (will be added to EATOM!!)
  PAW_PBE V 08Apr2002                   :
 energy of atom  2       EATOM= -170.8679
 kinetic energy error for atom=    0.0066 (will be added to EATOM!!)
 
 
 POSCAR: Co  V                                   
  positions in cartesian coordinates
  No initial velocities read in
 exchange correlation table for  LEXCH =        8
   RHO(1)=    0.500       N(1)  =     2000
   RHO(2)=  100.500       N(2)  =     4000
 


--------------------------------------------------------------------------------------------------------


 ion  position               nearest neighbor table
   1  0.000  0.000  0.000-   2 2.60   2 2.60   2 2.60   2 2.60   2 2.60   2 2.60   2 2.60   2 2.60

   2  0.500  0.500  0.500-   1 2.60   1 2.60   1 2.60   1 2.60   1 2.60   1 2.60   1 2.60   1 2.60

 
  LATTYP: Found a simple tetragonal cell.
 ALAT       =     2.6021529548
 C/A-ratio  =     1.4142135624
  
  Lattice vectors:
  
 A1 = (   1.8400000000,   1.8400000000,   0.0000000000)
 A2 = (  -1.8400000000,   1.8400000000,   0.0000000000)
 A3 = (   0.0000000000,   0.0000000000,   3.6800000000)


Analysis of symmetry for initial positions (statically):
=====================================================================
 Subroutine PRICEL returns:
 Original cell was already a primitive cell.
 

 Routine SETGRP: Setting up the symmetry group for a 
 simple tetragonal supercell.


 Subroutine GETGRP returns: Found 16 space group operations
 (whereof 16 operations were pure point group operations)
 out of a pool of 16 trial point group operations.


The static configuration has the point symmetry D_4h.


Analysis of symmetry for dynamics (positions and initial velocities):
=====================================================================
 Subroutine PRICEL returns:
 Original cell was already a primitive cell.
 

 Routine SETGRP: Setting up the symmetry group for a 
 simple tetragonal supercell.


 Subroutine GETGRP returns: Found 16 space group operations
 (whereof 16 operations were pure point group operations)
 out of a pool of 16 trial point group operations.


The dynamic configuration has the point symmetry D_4h.


 Subroutine INISYM returns: Found 16 space group operations
 (whereof 16 operations are pure point group operations),
 and found     1 'primitive' translations

 
 
 KPOINTS: Server version 2018.05.22. K-point grid 
  k-points in reciprocal lattice
Space group operators:
 irot       det(A)        alpha          n_x          n_y          n_z        tau_x        tau_y        tau_z
    1     1.000000     0.000000     1.000000     0.000000     0.000000     0.000000     0.000000     0.000000
    2    -1.000000     0.000000     1.000000     0.000000     0.000000     0.000000     0.000000     0.000000
    3     1.000000    90.000000     0.000000     0.000000    -1.000000     0.000000     0.000000     0.000000
    4    -1.000000    90.000000     0.000000     0.000000    -1.000000     0.000000     0.000000     0.000000
    5     1.000000   180.000000     0.000000     0.000000     1.000000     0.000000     0.000000     0.000000
    6    -1.000000   180.000000     0.000000     0.000000     1.000000     0.000000     0.000000     0.000000
    7     1.000000    90.000000     0.000000     0.000000     1.000000     0.000000     0.000000     0.000000
    8    -1.000000    90.000000     0.000000     0.000000     1.000000     0.000000     0.000000     0.000000
    9     1.000000   180.000000     0.707107    -0.707107     0.000000     0.000000     0.000000     0.000000
   10    -1.000000   180.000000     0.707107    -0.707107     0.000000     0.000000     0.000000     0.000000
   11     1.000000   180.000000     0.000000     1.000000     0.000000     0.000000     0.000000     0.000000
   12    -1.000000   180.000000     0.000000     1.000000     0.000000     0.000000     0.000000     0.000000
   13     1.000000   180.000000     0.707107     0.707107     0.000000     0.000000     0.000000     0.000000
   14    -1.000000   180.000000     0.707107     0.707107     0.000000     0.000000     0.000000     0.000000
   15     1.000000   180.000000     1.000000     0.000000     0.000000     0.000000     0.000000     0.000000
   16    -1.000000   180.000000     1.000000     0.000000     0.000000     0.000000     0.000000     0.000000


--------------------------------------------------------------------------------------------------------




 Dimension of arrays:
   k-points           NKPTS =    354   k-points in BZ     NKDIM =    354   number of bands    NBANDS=     11
   number of dos      NEDOS =    301   number of ions     NIONS =      2
   non local maximal  LDIM  =      6   non local SUM 2l+1 LMDIM =     18
   total plane-waves  NPLWV =   3920
   max r-space proj   IRMAX =      1   max aug-charges    IRDMAX=   9739
   dimension x,y,z NGX =    14 NGY =   14 NGZ =   20
   dimension x,y,z NGXF=    28 NGYF=   28 NGZF=   40
   support grid    NGXF=    28 NGYF=   28 NGZF=   40
   ions per type =               1   1
   NGX,Y,Z   is equivalent  to a cutoff of   8.94,  8.94,  9.04 a.u.
   NGXF,Y,Z  is equivalent  to a cutoff of  17.89, 17.89, 18.07 a.u.

 SYSTEM =  unknown system                          
 POSCAR =  Co  V                                   

 Startparameter for this run:
   NWRITE =      2    write-flag & timer
   PREC   = a         normal or accurate (medium, high low for compatibility)
   ISTART =      0    job   : 0-new  1-cont  2-samecut
   ICHARG =      2    charge: 1-file 2-atom 10-const
   ISPIN  =      1    spin polarized calculation?
   LNONCOLLINEAR =      F non collinear calculations
   LSORBIT =      F    spin-orbit coupling
   INIWAV =      1    electr: 0-lowe 1-rand  2-diag
   LASPH  =      F    aspherical Exc in radial PAW
   METAGGA=      F    non-selfconsistent MetaGGA calc.

 Electronic Relaxation 1
   ENCUT  =  268.0 eV  19.70 Ry    4.44 a.u.   3.47  3.47  4.91*2*pi/ulx,y,z
   ENINI  =  268.0     initial cutoff
   ENAUG  =  477.8 eV  augmentation charge cutoff
   NELM   =     60;   NELMIN=  2; NELMDL= -5     # of ELM steps 
   EDIFF  = 0.1E-04   stopping-criterion for ELM
   LREAL  =      F    real-space projection
   NLSPLINE    = F    spline interpolate recip. space projectors
   LCOMPAT=      F    compatible to vasp.4.4
   GGA_COMPAT  = T    GGA compatible to vasp.4.4-vasp.4.6
   LMAXPAW     = -100 max onsite density
   LMAXMIX     =    2 max onsite mixed and CHGCAR
   VOSKOWN=      0    Vosko Wilk Nusair interpolation
   ROPT   =    0.00000   0.00000
 Ionic relaxation
   EDIFFG = 0.1E-03   stopping-criterion for IOM
   NSW    =      0    number of steps for IOM
   NBLOCK =      1;   KBLOCK =      1    inner block; outer block 
   IBRION =     -1    ionic relax: 0-MD 1-quasi-New 2-CG
   NFREE  =      0    steps in history (QN), initial steepest desc. (CG)
   ISIF   =      2    stress and relaxation
   IWAVPR =     10    prediction:  0-non 1-charg 2-wave 3-comb
   ISYM   =      2    0-nonsym 1-usesym 2-fastsym
   LCORR  =      T    Harris-Foulkes like correction to forces

   POTIM  = 0.5000    time-step for ionic-motion
   TEIN   =    0.0    initial temperature
   TEBEG  =    0.0;   TEEND  =   0.0 temperature during run
   SMASS  =  -3.00    Nose mass-parameter (am)
   estimated Nose-frequenzy (Omega)   =  0.10E-29 period in steps =****** mass=  -0.155E-27a.u.
   SCALEE = 1.0000    scale energy and forces
   NPACO  =    256;   APACO  = 16.0  distance and # of slots for P.C.
   PSTRESS=    0.0 pullay stress

  Mass of Ions in am
   POMASS =  58.93 50.94
  Ionic Valenz
   ZVAL   =   9.00  5.00
  Atomic Wigner-Seitz radii
   RWIGS  =  -1.00 -1.00
  virtual crystal weights 
   VCA    =   1.00  1.00
   NELECT =      14.0000    total number of electrons
   NUPDOWN=      -1.0000    fix difference up-down

 DOS related values:
   EMIN   =  10.00;   EMAX   =-10.00  energy-range for DOS
   EFERMI =   0.00
   ISMEAR =     1;   SIGMA  =   0.20  broadening in eV -4-tet -1-fermi 0-gaus

 Electronic relaxation 2 (details)
   IALGO  =     38    algorithm
   LDIAG  =      T    sub-space diagonalisation (order eigenvalues)
   LSUBROT=      F    optimize rotation matrix (better conditioning)
   TURBO    =      0    0=normal 1=particle mesh
   IRESTART =      0    0=no restart 2=restart with 2 vectors
   NREBOOT  =      0    no. of reboots
   NMIN     =      0    reboot dimension
   EREF     =   0.00    reference energy to select bands
   IMIX   =      4    mixing-type and parameters
     AMIX     =   0.40;   BMIX     =  1.00
     AMIX_MAG =   1.60;   BMIX_MAG =  1.00
     AMIN     =   0.10
     WC   =   100.;   INIMIX=   1;  MIXPRE=   1;  MAXMIX= -45

 Intra band minimization:
   WEIMIN = 0.0000     energy-eigenvalue tresh-hold
   EBREAK =  0.23E-06  absolut break condition
   DEPER  =   0.30     relativ break condition  

   TIME   =   0.40     timestep for ELM

  volume/ion in A,a.u.               =      12.46        84.08
  Fermi-wavevector in a.u.,A,eV,Ry     =   1.350868  2.552771 24.828527  1.824845
  Thomas-Fermi vector in A             =   2.478337
 
 Write flags
   LWAVE        =      T    write WAVECAR
   LDOWNSAMPLE  =      F    k-point downsampling of WAVECAR
   LCHARG       =      T    write CHGCAR
   LVTOT        =      F    write LOCPOT, total local potential
   LVHAR        =      F    write LOCPOT, Hartree potential only
   LELF         =      F    write electronic localiz. function (ELF)
   LORBIT       =      0    0 simple, 1 ext, 2 COOP (PROOUT), +10 PAW based schemes


 Dipole corrections
   LMONO  =      F    monopole corrections only (constant potential shift)
   LDIPOL =      F    correct potential (dipole corrections)
   IDIPOL =      0    1-x, 2-y, 3-z, 4-all directions 
   EPSILON=  1.0000000 bulk dielectric constant

 Exchange correlation treatment:
   GGA     =    PE    GGA type
   LEXCH   =     8    internal setting for exchange type
   VOSKOWN=      0    Vosko Wilk Nusair interpolation
   LHFCALC =     F    Hartree Fock is set to
   LHFONE  =     F    Hartree Fock one center treatment
   AEXX    =    0.0000 exact exchange contribution

 Linear response parameters
   LEPSILON=     F    determine dielectric tensor
   LRPA    =     F    only Hartree local field effects (RPA)
   LNABLA  =     F    use nabla operator in PAW spheres
   LVEL    =     F    velocity operator in full k-point grid
   LINTERFAST=   F  fast interpolation
   KINTER  =     0    interpolate to denser k-point grid
   CSHIFT  =0.1000    complex shift for real part using Kramers Kronig
   OMEGAMAX=  -1.0    maximum frequency
   DEG_THRESHOLD= 0.2000000E-02 threshold for treating states as degnerate
   RTIME   =   -0.100 relaxation time in fs
  (WPLASMAI=    0.000 imaginary part of plasma frequency in eV, 0.658/RTIME)
   DFIELD  = 0.0000000 0.0000000 0.0000000 field for delta impulse in time
 
 Orbital magnetization related:
   ORBITALMAG=     F  switch on orbital magnetization
   LCHIMAG   =     F  perturbation theory with respect to B field
   DQ        =  0.001000  dq finite difference perturbation B field
   LLRAUG    =     F  two centre corrections for induced B field



--------------------------------------------------------------------------------------------------------


 Static calculation
 charge density and potential will be updated during run
 non-spin polarized calculation
 Variant of blocked Davidson
 Davidson routine will perform the subspace rotation
 perform sub-space diagonalisation
    after iterative eigenvector-optimisation
 modified Broyden-mixing scheme, WC =      100.0
 initial mixing is a Kerker type mixing with AMIX =  0.4000 and BMIX =      1.0000
 Hartree-type preconditioning will be used
 using additional bands            4
 reciprocal scheme for non local part
 use partial core corrections
 calculate Harris-corrections to forces 
   (improved forces if not selfconsistent)
 use gradient corrections 
 use of overlap-Matrix (Vanderbilt PP)
 Methfessel and Paxton  Order N= 1 SIGMA  =   0.20


--------------------------------------------------------------------------------------------------------


  energy-cutoff  :      267.97
  volume of cell :       24.92
      direct lattice vectors                 reciprocal lattice vectors
     1.840000000  1.840000000  0.000000000     0.271739130  0.271739130  0.000000000
    -1.840000000  1.840000000  0.000000000    -0.271739130  0.271739130  0.000000000
     0.000000000  0.000000000  3.680000000     0.000000000  0.000000000  0.271739130

  length of vectors
     2.602152955  2.602152955  3.680000000     0.384297164  0.384297164  0.271739130


 
 k-points in units of 2pi/SCALE and weight: Server version 2018.05.22. K-point grid 
   0.00000000  0.00000000  0.00000000       0.000
   0.01235178  0.01235178  0.25475543       0.002
   0.02470356  0.02470356  0.23777174       0.002
   0.03705534  0.03705534  0.22078804       0.002
   0.04940711  0.04940711  0.20380435       0.002
   0.06175889  0.06175889  0.18682065       0.002
   0.07411067  0.07411067  0.16983696       0.002
   0.08646245  0.08646245  0.15285326       0.002
   0.09881423  0.09881423  0.13586957       0.001
   0.11116601  0.11116601  0.11888587       0.002
   0.12351779  0.12351779  0.10190217       0.002
   0.13586957  0.13586957  0.08491848       0.001
   0.14822134  0.14822134  0.06793478       0.002
   0.16057312  0.16057312  0.05095109       0.002
   0.17292490  0.17292490  0.03396739       0.002
   0.18527668  0.18527668  0.01698370       0.002
   0.19762846  0.19762846  0.00000000       0.001
   0.20998024  0.20998024  0.25475543       0.002
   0.22233202  0.22233202  0.23777174       0.002
   0.24703557  0.24703557  0.20380435       0.002
   0.25938735  0.25938735  0.18682065       0.002
   0.00000000  0.00000000  0.16983696       0.001
   0.01235178  0.01235178  0.15285326       0.002
   0.02470356  0.02470356  0.13586957       0.001
   0.03705534  0.03705534  0.11888587       0.002
   0.04940711  0.04940711  0.10190217       0.002
   0.07411067  0.07411067  0.06793478       0.002
   0.08646245  0.08646245  0.05095109       0.002
   0.11116601  0.11116601  0.01698370       0.002
   0.12351779  0.12351779  0.00000000       0.001
   0.13586957  0.13586957  0.25475543       0.001
   0.14822134  0.14822134  0.23777174       0.002
   0.17292490  0.17292490  0.20380435       0.002
   0.18527668  0.18527668  0.18682065       0.002
   0.20998024  0.20998024  0.15285326       0.002
   0.22233202  0.22233202  0.13586957       0.001
   0.24703557  0.24703557  0.10190217       0.002
   0.00000000  0.00000000  0.06793478       0.001
   0.01235178  0.01235178  0.05095109       0.002
   0.03705534  0.03705534  0.01698370       0.002
   0.04940711  0.04940711  0.00000000       0.001
   0.07411067  0.07411067  0.23777174       0.002
   0.11116601  0.11116601  0.18682065       0.002
   0.13586957  0.13586957  0.15285326       0.001
   0.14822134  0.14822134  0.13586957       0.001
   0.17292490  0.17292490  0.10190217       0.002
   0.20998024  0.20998024  0.05095109       0.002
   0.24703557  0.24703557  0.00000000       0.001
   0.00000000  0.00000000  0.23777174       0.001
   0.03705534  0.03705534  0.18682065       0.002
   0.07411067  0.07411067  0.13586957       0.001
   0.13586957  0.13586957  0.05095109       0.001
   0.17292490  0.17292490  0.00000000       0.001
   0.00000000  0.00000000  0.13586957       0.000
  -0.24703557  0.27173913  0.23777174       0.002
  -0.23468379  0.28409091  0.22078804       0.004
  -0.22233202  0.29644269  0.20380435       0.004
  -0.20998024  0.30879447  0.18682065       0.004
  -0.19762846  0.32114625  0.16983696       0.004
  -0.18527668  0.33349802  0.15285326       0.004
  -0.17292490  0.34584980  0.13586957       0.002
  -0.16057312  0.35820158  0.11888587       0.004
  -0.14822134  0.37055336  0.10190217       0.004
  -0.13586957  0.38290514  0.08491848       0.004
  -0.12351779  0.39525692  0.06793478       0.002
  -0.11116601  0.40760870  0.05095109       0.004
  -0.09881423  0.41996047  0.03396739       0.004
  -0.08646245  0.43231225  0.01698370       0.004
  -0.07411067  0.44466403  0.00000000       0.002
  -0.06175889  0.45701581  0.25475543       0.004
  -0.04940711  0.46936759  0.23777174       0.004
  -0.03705534  0.48171937  0.22078804       0.004
  -0.01235178  0.50642292  0.18682065       0.004
   0.00000000  0.51877470  0.16983696       0.002
  -0.24703557  0.27173913  0.13586957       0.001
  -0.23468379  0.28409091  0.11888587       0.004
  -0.22233202  0.29644269  0.10190217       0.004
  -0.19762846  0.32114625  0.06793478       0.004
  -0.18527668  0.33349802  0.05095109       0.004
  -0.17292490  0.34584980  0.03396739       0.004
  -0.14822134  0.37055336  0.00000000       0.002
  -0.13586957  0.38290514  0.25475543       0.004
  -0.12351779  0.39525692  0.23777174       0.002
  -0.09881423  0.41996047  0.20380435       0.004
  -0.08646245  0.43231225  0.18682065       0.004
  -0.07411067  0.44466403  0.16983696       0.004
  -0.04940711  0.46936759  0.13586957       0.002
  -0.03705534  0.48171937  0.11888587       0.004
   0.00000000  0.51877470  0.06793478       0.002
  -0.23468379  0.28409091  0.01698370       0.004
  -0.22233202  0.29644269  0.00000000       0.002
  -0.20998024  0.30879447  0.25475543       0.004
  -0.17292490  0.34584980  0.20380435       0.004
  -0.13586957  0.38290514  0.15285326       0.004
  -0.12351779  0.39525692  0.13586957       0.001
  -0.24703557  0.27173913  0.00000000       0.001
  -0.22233202  0.29644269  0.23777174       0.004
  -0.18527668  0.33349802  0.18682065       0.004
  -0.14822134  0.37055336  0.13586957       0.002
  -0.12351779  0.39525692  0.10190217       0.002
  -0.08646245  0.43231225  0.05095109       0.004
  -0.04940711  0.46936759  0.00000000       0.002
  -0.22233202  0.29644269  0.13586957       0.002
  -0.12351779  0.39525692  0.00000000       0.001
  -0.22233202  0.27173913  0.20380435       0.002
  -0.20998024  0.28409091  0.18682065       0.004
  -0.19762846  0.29644269  0.16983696       0.004
  -0.18527668  0.30879447  0.15285326       0.004
  -0.17292490  0.32114625  0.13586957       0.002
  -0.16057312  0.33349802  0.11888587       0.004
  -0.14822134  0.34584980  0.10190217       0.004
  -0.13586957  0.35820158  0.08491848       0.004
  -0.12351779  0.37055336  0.06793478       0.004
  -0.11116601  0.38290514  0.05095109       0.002
  -0.09881423  0.39525692  0.03396739       0.004
  -0.08646245  0.40760870  0.01698370       0.004
  -0.07411067  0.41996047  0.00000000       0.002
  -0.06175889  0.43231225  0.25475543       0.004
  -0.04940711  0.44466403  0.23777174       0.004
  -0.03705534  0.45701581  0.22078804       0.004
  -0.02470356  0.46936759  0.20380435       0.004
   0.00000000  0.49407115  0.16983696       0.002
  -0.22233202  0.27173913  0.00000000       0.001
  -0.20998024  0.28409091  0.25475543       0.004
  -0.19762846  0.29644269  0.23777174       0.004
  -0.17292490  0.32114625  0.20380435       0.004
  -0.16057312  0.33349802  0.18682065       0.004
  -0.13586957  0.35820158  0.15285326       0.004
  -0.12351779  0.37055336  0.13586957       0.002
  -0.11116601  0.38290514  0.11888587       0.002
  -0.09881423  0.39525692  0.10190217       0.004
  -0.07411067  0.41996047  0.06793478       0.004
  -0.06175889  0.43231225  0.05095109       0.004
  -0.03705534  0.45701581  0.01698370       0.004
  -0.02470356  0.46936759  0.00000000       0.002
   0.00000000  0.49407115  0.23777174       0.002
  -0.20998024  0.28409091  0.15285326       0.004
  -0.19762846  0.29644269  0.13586957       0.002
  -0.17292490  0.32114625  0.10190217       0.004
  -0.13586957  0.35820158  0.05095109       0.004
  -0.11116601  0.38290514  0.01698370       0.002
  -0.09881423  0.39525692  0.00000000       0.002
  -0.07411067  0.41996047  0.23777174       0.004
  -0.03705534  0.45701581  0.18682065       0.004
   0.00000000  0.49407115  0.13586957       0.001
  -0.20998024  0.28409091  0.05095109       0.004
  -0.17292490  0.32114625  0.00000000       0.002
  -0.11116601  0.38290514  0.18682065       0.002
  -0.07411067  0.41996047  0.13586957       0.002
  -0.19762846  0.27173913  0.16983696       0.002
  -0.18527668  0.28409091  0.15285326       0.004
  -0.17292490  0.29644269  0.13586957       0.002
  -0.16057312  0.30879447  0.11888587       0.004
  -0.14822134  0.32114625  0.10190217       0.004
  -0.13586957  0.33349802  0.08491848       0.004
  -0.12351779  0.34584980  0.06793478       0.004
  -0.11116601  0.35820158  0.05095109       0.004
  -0.09881423  0.37055336  0.03396739       0.002
  -0.08646245  0.38290514  0.01698370       0.004
  -0.07411067  0.39525692  0.00000000       0.002
  -0.06175889  0.40760870  0.25475543       0.004
  -0.04940711  0.41996047  0.23777174       0.004
  -0.03705534  0.43231225  0.22078804       0.004
  -0.02470356  0.44466403  0.20380435       0.004
  -0.01235178  0.45701581  0.18682065       0.004
  -0.19762846  0.27173913  0.06793478       0.002
  -0.18527668  0.28409091  0.05095109       0.004
  -0.17292490  0.29644269  0.03396739       0.004
  -0.16057312  0.30879447  0.01698370       0.004
  -0.14822134  0.32114625  0.00000000       0.002
  -0.12351779  0.34584980  0.23777174       0.004
  -0.09881423  0.37055336  0.20380435       0.002
  -0.08646245  0.38290514  0.18682065       0.004
  -0.07411067  0.39525692  0.16983696       0.004
  -0.06175889  0.40760870  0.15285326       0.004
  -0.04940711  0.41996047  0.13586957       0.002
  -0.02470356  0.44466403  0.10190217       0.004
  -0.19762846  0.27173913  0.23777174       0.002
  -0.16057312  0.30879447  0.18682065       0.004
  -0.12351779  0.34584980  0.13586957       0.002
  -0.11116601  0.35820158  0.11888587       0.004
  -0.09881423  0.37055336  0.10190217       0.002
  -0.06175889  0.40760870  0.05095109       0.004
  -0.02470356  0.44466403  0.00000000       0.002
  -0.01235178  0.45701581  0.25475543       0.004
  -0.19762846  0.27173913  0.13586957       0.001
  -0.14822134  0.32114625  0.06793478       0.004
  -0.09881423  0.37055336  0.00000000       0.001
  -0.19762846  0.27173913  0.00000000       0.001
  -0.09881423  0.37055336  0.13586957       0.001
  -0.17292490  0.27173913  0.13586957       0.001
  -0.16057312  0.28409091  0.11888587       0.004
  -0.14822134  0.29644269  0.10190217       0.004
  -0.13586957  0.30879447  0.08491848       0.004
  -0.12351779  0.32114625  0.06793478       0.004
  -0.11116601  0.33349802  0.05095109       0.004
  -0.09881423  0.34584980  0.03396739       0.004
  -0.08646245  0.35820158  0.01698370       0.002
  -0.07411067  0.37055336  0.00000000       0.002
  -0.06175889  0.38290514  0.25475543       0.004
  -0.04940711  0.39525692  0.23777174       0.004
  -0.03705534  0.40760870  0.22078804       0.004
  -0.02470356  0.41996047  0.20380435       0.004
  -0.01235178  0.43231225  0.18682065       0.004
   0.00000000  0.44466403  0.16983696       0.002
  -0.17292490  0.27173913  0.03396739       0.002
  -0.16057312  0.28409091  0.01698370       0.004
  -0.14822134  0.29644269  0.00000000       0.002
  -0.13586957  0.30879447  0.25475543       0.004
  -0.09881423  0.34584980  0.20380435       0.004
  -0.08646245  0.35820158  0.18682065       0.002
  -0.07411067  0.37055336  0.16983696       0.004
  -0.06175889  0.38290514  0.15285326       0.004
  -0.04940711  0.39525692  0.13586957       0.002
  -0.03705534  0.40760870  0.11888587       0.004
   0.00000000  0.44466403  0.06793478       0.002
  -0.17292490  0.27173913  0.00000000       0.001
  -0.14822134  0.29644269  0.23777174       0.004
  -0.11116601  0.33349802  0.18682065       0.004
  -0.08646245  0.35820158  0.15285326       0.002
  -0.07411067  0.37055336  0.13586957       0.002
  -0.04940711  0.39525692  0.10190217       0.004
  -0.01235178  0.43231225  0.05095109       0.004
  -0.14822134  0.29644269  0.13586957       0.002
  -0.08646245  0.35820158  0.05095109       0.002
  -0.04940711  0.39525692  0.00000000       0.002
  -0.14822134  0.27173913  0.10190217       0.002
  -0.13586957  0.28409091  0.08491848       0.004
  -0.12351779  0.29644269  0.06793478       0.004
  -0.11116601  0.30879447  0.05095109       0.004
  -0.09881423  0.32114625  0.03396739       0.004
  -0.08646245  0.33349802  0.01698370       0.004
  -0.07411067  0.34584980  0.00000000       0.001
  -0.14822134  0.27173913  0.00000000       0.001
  -0.13586957  0.28409091  0.25475543       0.004
  -0.12351779  0.29644269  0.23777174       0.004
  -0.09881423  0.32114625  0.20380435       0.004
  -0.08646245  0.33349802  0.18682065       0.004
  -0.07411067  0.34584980  0.16983696       0.002
  -0.06175889  0.35820158  0.15285326       0.004
  -0.04940711  0.37055336  0.13586957       0.002
  -0.03705534  0.38290514  0.11888587       0.004
  -0.02470356  0.39525692  0.10190217       0.004
   0.00000000  0.41996047  0.06793478       0.002
  -0.13586957  0.28409091  0.15285326       0.004
  -0.12351779  0.29644269  0.13586957       0.002
  -0.09881423  0.32114625  0.10190217       0.004
  -0.07411067  0.34584980  0.06793478       0.002
  -0.06175889  0.35820158  0.05095109       0.004
  -0.03705534  0.38290514  0.01698370       0.004
  -0.02470356  0.39525692  0.00000000       0.002
   0.00000000  0.41996047  0.23777174       0.002
  -0.13586957  0.28409091  0.05095109       0.004
  -0.09881423  0.32114625  0.00000000       0.002
  -0.07411067  0.34584980  0.23777174       0.002
  -0.03705534  0.38290514  0.18682065       0.004
   0.00000000  0.41996047  0.13586957       0.001
  -0.07411067  0.34584980  0.13586957       0.001
  -0.12351779  0.27173913  0.06793478       0.002
  -0.11116601  0.28409091  0.05095109       0.004
  -0.09881423  0.29644269  0.03396739       0.004
  -0.08646245  0.30879447  0.01698370       0.004
  -0.07411067  0.32114625  0.00000000       0.002
  -0.06175889  0.33349802  0.25475543       0.002
  -0.04940711  0.34584980  0.23777174       0.004
  -0.03705534  0.35820158  0.22078804       0.004
  -0.02470356  0.37055336  0.20380435       0.004
  -0.01235178  0.38290514  0.18682065       0.004
   0.00000000  0.39525692  0.16983696       0.002
  -0.12351779  0.27173913  0.23777174       0.002
  -0.08646245  0.30879447  0.18682065       0.004
  -0.07411067  0.32114625  0.16983696       0.004
  -0.06175889  0.33349802  0.15285326       0.002
  -0.04940711  0.34584980  0.13586957       0.002
  -0.03705534  0.35820158  0.11888587       0.004
  -0.02470356  0.37055336  0.10190217       0.004
  -0.12351779  0.27173913  0.13586957       0.001
  -0.11116601  0.28409091  0.11888587       0.004
  -0.07411067  0.32114625  0.06793478       0.004
  -0.06175889  0.33349802  0.05095109       0.002
  -0.02470356  0.37055336  0.00000000       0.002
  -0.01235178  0.38290514  0.25475543       0.004
  -0.12351779  0.27173913  0.00000000       0.001
  -0.06175889  0.33349802  0.18682065       0.002
  -0.02470356  0.37055336  0.13586957       0.002
  -0.09881423  0.27173913  0.03396739       0.002
  -0.08646245  0.28409091  0.01698370       0.004
  -0.07411067  0.29644269  0.00000000       0.002
  -0.06175889  0.30879447  0.25475543       0.004
  -0.04940711  0.32114625  0.23777174       0.002
  -0.03705534  0.33349802  0.22078804       0.004
  -0.02470356  0.34584980  0.20380435       0.004
  -0.01235178  0.35820158  0.18682065       0.004
   0.00000000  0.37055336  0.16983696       0.002
  -0.09881423  0.27173913  0.20380435       0.002
  -0.07411067  0.29644269  0.16983696       0.004
  -0.06175889  0.30879447  0.15285326       0.004
  -0.04940711  0.32114625  0.13586957       0.001
  -0.09881423  0.27173913  0.00000000       0.001
  -0.07411067  0.29644269  0.23777174       0.004
  -0.04940711  0.32114625  0.20380435       0.002
  -0.03705534  0.33349802  0.18682065       0.004
  -0.01235178  0.35820158  0.15285326       0.004
   0.00000000  0.37055336  0.13586957       0.001
  -0.07411067  0.29644269  0.13586957       0.002
  -0.04940711  0.32114625  0.10190217       0.002
  -0.01235178  0.35820158  0.05095109       0.004
  -0.04940711  0.32114625  0.00000000       0.001
  -0.07411067  0.27173913  0.00000000       0.001
  -0.06175889  0.28409091  0.25475543       0.004
  -0.04940711  0.29644269  0.23777174       0.004
  -0.03705534  0.30879447  0.22078804       0.002
  -0.02470356  0.32114625  0.20380435       0.004
  -0.01235178  0.33349802  0.18682065       0.004
   0.00000000  0.34584980  0.16983696       0.002
  -0.06175889  0.28409091  0.15285326       0.004
  -0.04940711  0.29644269  0.13586957       0.002
  -0.03705534  0.30879447  0.11888587       0.002
  -0.02470356  0.32114625  0.10190217       0.004
   0.00000000  0.34584980  0.06793478       0.002
  -0.06175889  0.28409091  0.05095109       0.004
  -0.03705534  0.30879447  0.01698370       0.002
  -0.02470356  0.32114625  0.00000000       0.002
   0.00000000  0.34584980  0.23777174       0.002
  -0.03705534  0.30879447  0.18682065       0.002
   0.00000000  0.34584980  0.13586957       0.001
  -0.04940711  0.27173913  0.23777174       0.002
  -0.03705534  0.28409091  0.22078804       0.004
  -0.02470356  0.29644269  0.20380435       0.002
  -0.01235178  0.30879447  0.18682065       0.004
   0.00000000  0.32114625  0.16983696       0.002
  -0.04940711  0.27173913  0.13586957       0.001
  -0.03705534  0.28409091  0.11888587       0.004
  -0.02470356  0.29644269  0.10190217       0.002
   0.00000000  0.32114625  0.06793478       0.002
  -0.03705534  0.28409091  0.01698370       0.004
  -0.02470356  0.29644269  0.00000000       0.001
  -0.04940711  0.27173913  0.00000000       0.001
  -0.02470356  0.29644269  0.23777174       0.002
  -0.02470356  0.29644269  0.13586957       0.001
  -0.02470356  0.27173913  0.20380435       0.002
  -0.01235178  0.28409091  0.18682065       0.002
   0.00000000  0.29644269  0.16983696       0.002
  -0.02470356  0.27173913  0.00000000       0.001
  -0.01235178  0.28409091  0.25475543       0.002
   0.00000000  0.29644269  0.23777174       0.002
  -0.01235178  0.28409091  0.15285326       0.002
   0.00000000  0.29644269  0.13586957       0.001
  -0.01235178  0.28409091  0.05095109       0.002
   0.00000000  0.27173913  0.16983696       0.001
   0.00000000  0.27173913  0.06793478       0.001
   0.00000000  0.27173913  0.23777174       0.001
   0.00000000  0.27173913  0.13586957       0.000
   0.00000000  0.27173913  0.00000000       0.000
 
 k-points in reciprocal lattice and weights: Server version 2018.05.22. K-point grid 
   0.00000000  0.00000000  0.00000000       0.000
   0.04545455  0.00000000  0.93750000       0.002
   0.09090909  0.00000000  0.87500000       0.002
   0.13636364  0.00000000  0.81250000       0.002
   0.18181818  0.00000000  0.75000000       0.002
   0.22727273  0.00000000  0.68750000       0.002
   0.27272727  0.00000000  0.62500000       0.002
   0.31818182  0.00000000  0.56250000       0.002
   0.36363636  0.00000000  0.50000000       0.001
   0.40909091  0.00000000  0.43750000       0.002
   0.45454545  0.00000000  0.37500000       0.002
   0.50000000  0.00000000  0.31250000       0.001
   0.54545455  0.00000000  0.25000000       0.002
   0.59090909  0.00000000  0.18750000       0.002
   0.63636364  0.00000000  0.12500000       0.002
   0.68181818  0.00000000  0.06250000       0.002
   0.72727273  0.00000000  0.00000000       0.001
   0.77272727  0.00000000  0.93750000       0.002
   0.81818182  0.00000000  0.87500000       0.002
   0.90909091  0.00000000  0.75000000       0.002
   0.95454545  0.00000000  0.68750000       0.002
   0.00000000  0.00000000  0.62500000       0.001
   0.04545455  0.00000000  0.56250000       0.002
   0.09090909  0.00000000  0.50000000       0.001
   0.13636364  0.00000000  0.43750000       0.002
   0.18181818  0.00000000  0.37500000       0.002
   0.27272727  0.00000000  0.25000000       0.002
   0.31818182  0.00000000  0.18750000       0.002
   0.40909091  0.00000000  0.06250000       0.002
   0.45454545  0.00000000  0.00000000       0.001
   0.50000000  0.00000000  0.93750000       0.001
   0.54545455  0.00000000  0.87500000       0.002
   0.63636364  0.00000000  0.75000000       0.002
   0.68181818  0.00000000  0.68750000       0.002
   0.77272727  0.00000000  0.56250000       0.002
   0.81818182  0.00000000  0.50000000       0.001
   0.90909091  0.00000000  0.37500000       0.002
   0.00000000  0.00000000  0.25000000       0.001
   0.04545455  0.00000000  0.18750000       0.002
   0.13636364  0.00000000  0.06250000       0.002
   0.18181818  0.00000000  0.00000000       0.001
   0.27272727  0.00000000  0.87500000       0.002
   0.40909091  0.00000000  0.68750000       0.002
   0.50000000  0.00000000  0.56250000       0.001
   0.54545455  0.00000000  0.50000000       0.001
   0.63636364  0.00000000  0.37500000       0.002
   0.77272727  0.00000000  0.18750000       0.002
   0.90909091  0.00000000  0.00000000       0.001
   0.00000000  0.00000000  0.87500000       0.001
   0.13636364  0.00000000  0.68750000       0.002
   0.27272727  0.00000000  0.50000000       0.001
   0.50000000  0.00000000  0.18750000       0.001
   0.63636364  0.00000000  0.00000000       0.001
   0.00000000  0.00000000  0.50000000       0.000
   0.04545455  0.95454545  0.87500000       0.002
   0.09090909  0.95454545  0.81250000       0.004
   0.13636364  0.95454545  0.75000000       0.004
   0.18181818  0.95454545  0.68750000       0.004
   0.22727273  0.95454545  0.62500000       0.004
   0.27272727  0.95454545  0.56250000       0.004
   0.31818182  0.95454545  0.50000000       0.002
   0.36363636  0.95454545  0.43750000       0.004
   0.40909091  0.95454545  0.37500000       0.004
   0.45454545  0.95454545  0.31250000       0.004
   0.50000000  0.95454545  0.25000000       0.002
   0.54545455  0.95454545  0.18750000       0.004
   0.59090909  0.95454545  0.12500000       0.004
   0.63636364  0.95454545  0.06250000       0.004
   0.68181818  0.95454545  0.00000000       0.002
   0.72727273  0.95454545  0.93750000       0.004
   0.77272727  0.95454545  0.87500000       0.004
   0.81818182  0.95454545  0.81250000       0.004
   0.90909091  0.95454545  0.68750000       0.004
   0.95454545  0.95454545  0.62500000       0.002
   0.04545455  0.95454545  0.50000000       0.001
   0.09090909  0.95454545  0.43750000       0.004
   0.13636364  0.95454545  0.37500000       0.004
   0.22727273  0.95454545  0.25000000       0.004
   0.27272727  0.95454545  0.18750000       0.004
   0.31818182  0.95454545  0.12500000       0.004
   0.40909091  0.95454545  0.00000000       0.002
   0.45454545  0.95454545  0.93750000       0.004
   0.50000000  0.95454545  0.87500000       0.002
   0.59090909  0.95454545  0.75000000       0.004
   0.63636364  0.95454545  0.68750000       0.004
   0.68181818  0.95454545  0.62500000       0.004
   0.77272727  0.95454545  0.50000000       0.002
   0.81818182  0.95454545  0.43750000       0.004
   0.95454545  0.95454545  0.25000000       0.002
   0.09090909  0.95454545  0.06250000       0.004
   0.13636364  0.95454545  0.00000000       0.002
   0.18181818  0.95454545  0.93750000       0.004
   0.31818182  0.95454545  0.75000000       0.004
   0.45454545  0.95454545  0.56250000       0.004
   0.50000000  0.95454545  0.50000000       0.001
   0.04545455  0.95454545  0.00000000       0.001
   0.13636364  0.95454545  0.87500000       0.004
   0.27272727  0.95454545  0.68750000       0.004
   0.40909091  0.95454545  0.50000000       0.002
   0.50000000  0.95454545  0.37500000       0.002
   0.63636364  0.95454545  0.18750000       0.004
   0.77272727  0.95454545  0.00000000       0.002
   0.13636364  0.95454545  0.50000000       0.002
   0.50000000  0.95454545  0.00000000       0.001
   0.09090909  0.90909091  0.75000000       0.002
   0.13636364  0.90909091  0.68750000       0.004
   0.18181818  0.90909091  0.62500000       0.004
   0.22727273  0.90909091  0.56250000       0.004
   0.27272727  0.90909091  0.50000000       0.002
   0.31818182  0.90909091  0.43750000       0.004
   0.36363636  0.90909091  0.37500000       0.004
   0.40909091  0.90909091  0.31250000       0.004
   0.45454545  0.90909091  0.25000000       0.004
   0.50000000  0.90909091  0.18750000       0.002
   0.54545455  0.90909091  0.12500000       0.004
   0.59090909  0.90909091  0.06250000       0.004
   0.63636364  0.90909091  0.00000000       0.002
   0.68181818  0.90909091  0.93750000       0.004
   0.72727273  0.90909091  0.87500000       0.004
   0.77272727  0.90909091  0.81250000       0.004
   0.81818182  0.90909091  0.75000000       0.004
   0.90909091  0.90909091  0.62500000       0.002
   0.09090909  0.90909091  0.00000000       0.001
   0.13636364  0.90909091  0.93750000       0.004
   0.18181818  0.90909091  0.87500000       0.004
   0.27272727  0.90909091  0.75000000       0.004
   0.31818182  0.90909091  0.68750000       0.004
   0.40909091  0.90909091  0.56250000       0.004
   0.45454545  0.90909091  0.50000000       0.002
   0.50000000  0.90909091  0.43750000       0.002
   0.54545455  0.90909091  0.37500000       0.004
   0.63636364  0.90909091  0.25000000       0.004
   0.68181818  0.90909091  0.18750000       0.004
   0.77272727  0.90909091  0.06250000       0.004
   0.81818182  0.90909091  0.00000000       0.002
   0.90909091  0.90909091  0.87500000       0.002
   0.13636364  0.90909091  0.56250000       0.004
   0.18181818  0.90909091  0.50000000       0.002
   0.27272727  0.90909091  0.37500000       0.004
   0.40909091  0.90909091  0.18750000       0.004
   0.50000000  0.90909091  0.06250000       0.002
   0.54545455  0.90909091  0.00000000       0.002
   0.63636364  0.90909091  0.87500000       0.004
   0.77272727  0.90909091  0.68750000       0.004
   0.90909091  0.90909091  0.50000000       0.001
   0.13636364  0.90909091  0.18750000       0.004
   0.27272727  0.90909091  0.00000000       0.002
   0.50000000  0.90909091  0.68750000       0.002
   0.63636364  0.90909091  0.50000000       0.002
   0.13636364  0.86363636  0.62500000       0.002
   0.18181818  0.86363636  0.56250000       0.004
   0.22727273  0.86363636  0.50000000       0.002
   0.27272727  0.86363636  0.43750000       0.004
   0.31818182  0.86363636  0.37500000       0.004
   0.36363636  0.86363636  0.31250000       0.004
   0.40909091  0.86363636  0.25000000       0.004
   0.45454545  0.86363636  0.18750000       0.004
   0.50000000  0.86363636  0.12500000       0.002
   0.54545455  0.86363636  0.06250000       0.004
   0.59090909  0.86363636  0.00000000       0.002
   0.63636364  0.86363636  0.93750000       0.004
   0.68181818  0.86363636  0.87500000       0.004
   0.72727273  0.86363636  0.81250000       0.004
   0.77272727  0.86363636  0.75000000       0.004
   0.81818182  0.86363636  0.68750000       0.004
   0.13636364  0.86363636  0.25000000       0.002
   0.18181818  0.86363636  0.18750000       0.004
   0.22727273  0.86363636  0.12500000       0.004
   0.27272727  0.86363636  0.06250000       0.004
   0.31818182  0.86363636  0.00000000       0.002
   0.40909091  0.86363636  0.87500000       0.004
   0.50000000  0.86363636  0.75000000       0.002
   0.54545455  0.86363636  0.68750000       0.004
   0.59090909  0.86363636  0.62500000       0.004
   0.63636364  0.86363636  0.56250000       0.004
   0.68181818  0.86363636  0.50000000       0.002
   0.77272727  0.86363636  0.37500000       0.004
   0.13636364  0.86363636  0.87500000       0.002
   0.27272727  0.86363636  0.68750000       0.004
   0.40909091  0.86363636  0.50000000       0.002
   0.45454545  0.86363636  0.43750000       0.004
   0.50000000  0.86363636  0.37500000       0.002
   0.63636364  0.86363636  0.18750000       0.004
   0.77272727  0.86363636  0.00000000       0.002
   0.81818182  0.86363636  0.93750000       0.004
   0.13636364  0.86363636  0.50000000       0.001
   0.31818182  0.86363636  0.25000000       0.004
   0.50000000  0.86363636  0.00000000       0.001
   0.13636364  0.86363636  0.00000000       0.001
   0.50000000  0.86363636  0.50000000       0.001
   0.18181818  0.81818182  0.50000000       0.001
   0.22727273  0.81818182  0.43750000       0.004
   0.27272727  0.81818182  0.37500000       0.004
   0.31818182  0.81818182  0.31250000       0.004
   0.36363636  0.81818182  0.25000000       0.004
   0.40909091  0.81818182  0.18750000       0.004
   0.45454545  0.81818182  0.12500000       0.004
   0.50000000  0.81818182  0.06250000       0.002
   0.54545455  0.81818182  0.00000000       0.002
   0.59090909  0.81818182  0.93750000       0.004
   0.63636364  0.81818182  0.87500000       0.004
   0.68181818  0.81818182  0.81250000       0.004
   0.72727273  0.81818182  0.75000000       0.004
   0.77272727  0.81818182  0.68750000       0.004
   0.81818182  0.81818182  0.62500000       0.002
   0.18181818  0.81818182  0.12500000       0.002
   0.22727273  0.81818182  0.06250000       0.004
   0.27272727  0.81818182  0.00000000       0.002
   0.31818182  0.81818182  0.93750000       0.004
   0.45454545  0.81818182  0.75000000       0.004
   0.50000000  0.81818182  0.68750000       0.002
   0.54545455  0.81818182  0.62500000       0.004
   0.59090909  0.81818182  0.56250000       0.004
   0.63636364  0.81818182  0.50000000       0.002
   0.68181818  0.81818182  0.43750000       0.004
   0.81818182  0.81818182  0.25000000       0.002
   0.18181818  0.81818182  0.00000000       0.001
   0.27272727  0.81818182  0.87500000       0.004
   0.40909091  0.81818182  0.68750000       0.004
   0.50000000  0.81818182  0.56250000       0.002
   0.54545455  0.81818182  0.50000000       0.002
   0.63636364  0.81818182  0.37500000       0.004
   0.77272727  0.81818182  0.18750000       0.004
   0.27272727  0.81818182  0.50000000       0.002
   0.50000000  0.81818182  0.18750000       0.002
   0.63636364  0.81818182  0.00000000       0.002
   0.22727273  0.77272727  0.37500000       0.002
   0.27272727  0.77272727  0.31250000       0.004
   0.31818182  0.77272727  0.25000000       0.004
   0.36363636  0.77272727  0.18750000       0.004
   0.40909091  0.77272727  0.12500000       0.004
   0.45454545  0.77272727  0.06250000       0.004
   0.50000000  0.77272727  0.00000000       0.001
   0.22727273  0.77272727  0.00000000       0.001
   0.27272727  0.77272727  0.93750000       0.004
   0.31818182  0.77272727  0.87500000       0.004
   0.40909091  0.77272727  0.75000000       0.004
   0.45454545  0.77272727  0.68750000       0.004
   0.50000000  0.77272727  0.62500000       0.002
   0.54545455  0.77272727  0.56250000       0.004
   0.59090909  0.77272727  0.50000000       0.002
   0.63636364  0.77272727  0.43750000       0.004
   0.68181818  0.77272727  0.37500000       0.004
   0.77272727  0.77272727  0.25000000       0.002
   0.27272727  0.77272727  0.56250000       0.004
   0.31818182  0.77272727  0.50000000       0.002
   0.40909091  0.77272727  0.37500000       0.004
   0.50000000  0.77272727  0.25000000       0.002
   0.54545455  0.77272727  0.18750000       0.004
   0.63636364  0.77272727  0.06250000       0.004
   0.68181818  0.77272727  0.00000000       0.002
   0.77272727  0.77272727  0.87500000       0.002
   0.27272727  0.77272727  0.18750000       0.004
   0.40909091  0.77272727  0.00000000       0.002
   0.50000000  0.77272727  0.87500000       0.002
   0.63636364  0.77272727  0.68750000       0.004
   0.77272727  0.77272727  0.50000000       0.001
   0.50000000  0.77272727  0.50000000       0.001
   0.27272727  0.72727273  0.25000000       0.002
   0.31818182  0.72727273  0.18750000       0.004
   0.36363636  0.72727273  0.12500000       0.004
   0.40909091  0.72727273  0.06250000       0.004
   0.45454545  0.72727273  0.00000000       0.002
   0.50000000  0.72727273  0.93750000       0.002
   0.54545455  0.72727273  0.87500000       0.004
   0.59090909  0.72727273  0.81250000       0.004
   0.63636364  0.72727273  0.75000000       0.004
   0.68181818  0.72727273  0.68750000       0.004
   0.72727273  0.72727273  0.62500000       0.002
   0.27272727  0.72727273  0.87500000       0.002
   0.40909091  0.72727273  0.68750000       0.004
   0.45454545  0.72727273  0.62500000       0.004
   0.50000000  0.72727273  0.56250000       0.002
   0.54545455  0.72727273  0.50000000       0.002
   0.59090909  0.72727273  0.43750000       0.004
   0.63636364  0.72727273  0.37500000       0.004
   0.27272727  0.72727273  0.50000000       0.001
   0.31818182  0.72727273  0.43750000       0.004
   0.45454545  0.72727273  0.25000000       0.004
   0.50000000  0.72727273  0.18750000       0.002
   0.63636364  0.72727273  0.00000000       0.002
   0.68181818  0.72727273  0.93750000       0.004
   0.27272727  0.72727273  0.00000000       0.001
   0.50000000  0.72727273  0.68750000       0.002
   0.63636364  0.72727273  0.50000000       0.002
   0.31818182  0.68181818  0.12500000       0.002
   0.36363636  0.68181818  0.06250000       0.004
   0.40909091  0.68181818  0.00000000       0.002
   0.45454545  0.68181818  0.93750000       0.004
   0.50000000  0.68181818  0.87500000       0.002
   0.54545455  0.68181818  0.81250000       0.004
   0.59090909  0.68181818  0.75000000       0.004
   0.63636364  0.68181818  0.68750000       0.004
   0.68181818  0.68181818  0.62500000       0.002
   0.31818182  0.68181818  0.75000000       0.002
   0.40909091  0.68181818  0.62500000       0.004
   0.45454545  0.68181818  0.56250000       0.004
   0.50000000  0.68181818  0.50000000       0.001
   0.31818182  0.68181818  0.00000000       0.001
   0.40909091  0.68181818  0.87500000       0.004
   0.50000000  0.68181818  0.75000000       0.002
   0.54545455  0.68181818  0.68750000       0.004
   0.63636364  0.68181818  0.56250000       0.004
   0.68181818  0.68181818  0.50000000       0.001
   0.40909091  0.68181818  0.50000000       0.002
   0.50000000  0.68181818  0.37500000       0.002
   0.63636364  0.68181818  0.18750000       0.004
   0.50000000  0.68181818  0.00000000       0.001
   0.36363636  0.63636364  0.00000000       0.001
   0.40909091  0.63636364  0.93750000       0.004
   0.45454545  0.63636364  0.87500000       0.004
   0.50000000  0.63636364  0.81250000       0.002
   0.54545455  0.63636364  0.75000000       0.004
   0.59090909  0.63636364  0.68750000       0.004
   0.63636364  0.63636364  0.62500000       0.002
   0.40909091  0.63636364  0.56250000       0.004
   0.45454545  0.63636364  0.50000000       0.002
   0.50000000  0.63636364  0.43750000       0.002
   0.54545455  0.63636364  0.37500000       0.004
   0.63636364  0.63636364  0.25000000       0.002
   0.40909091  0.63636364  0.18750000       0.004
   0.50000000  0.63636364  0.06250000       0.002
   0.54545455  0.63636364  0.00000000       0.002
   0.63636364  0.63636364  0.87500000       0.002
   0.50000000  0.63636364  0.68750000       0.002
   0.63636364  0.63636364  0.50000000       0.001
   0.40909091  0.59090909  0.87500000       0.002
   0.45454545  0.59090909  0.81250000       0.004
   0.50000000  0.59090909  0.75000000       0.002
   0.54545455  0.59090909  0.68750000       0.004
   0.59090909  0.59090909  0.62500000       0.002
   0.40909091  0.59090909  0.50000000       0.001
   0.45454545  0.59090909  0.43750000       0.004
   0.50000000  0.59090909  0.37500000       0.002
   0.59090909  0.59090909  0.25000000       0.002
   0.45454545  0.59090909  0.06250000       0.004
   0.50000000  0.59090909  0.00000000       0.001
   0.40909091  0.59090909  0.00000000       0.001
   0.50000000  0.59090909  0.87500000       0.002
   0.50000000  0.59090909  0.50000000       0.001
   0.45454545  0.54545455  0.75000000       0.002
   0.50000000  0.54545455  0.68750000       0.002
   0.54545455  0.54545455  0.62500000       0.002
   0.45454545  0.54545455  0.00000000       0.001
   0.50000000  0.54545455  0.93750000       0.002
   0.54545455  0.54545455  0.87500000       0.002
   0.50000000  0.54545455  0.56250000       0.002
   0.54545455  0.54545455  0.50000000       0.001
   0.50000000  0.54545455  0.18750000       0.002
   0.50000000  0.50000000  0.62500000       0.001
   0.50000000  0.50000000  0.25000000       0.001
   0.50000000  0.50000000  0.87500000       0.001
   0.50000000  0.50000000  0.50000000       0.000
   0.50000000  0.50000000  0.00000000       0.000
 
 position of ions in fractional coordinates (direct lattice) 
   0.00000000  0.00000000  0.00000000
   0.50000000  0.50000000  0.50000000
 
 position of ions in cartesian coordinates  (Angst):
   0.00000000  0.00000000  0.00000000
   0.00000000  1.84000000  1.84000000
 


--------------------------------------------------------------------------------------------------------


 k-point  1 :   0.0000 0.0000 0.0000  plane waves:     253
 k-point  2 :   0.0455 0.0000 0.9375  plane waves:     243
 k-point  3 :   0.0909 0.0000 0.8750  plane waves:     244
 k-point  4 :   0.1364 0.0000 0.8125  plane waves:     247
 k-point  5 :   0.1818 0.0000 0.7500  plane waves:     251
 k-point  6 :   0.2273 0.0000 0.6875  plane waves:     253
 k-point  7 :   0.2727 0.0000 0.6250  plane waves:     255
 k-point  8 :   0.3182 0.0000 0.5625  plane waves:     248
 k-point  9 :   0.3636 0.0000 0.5000  plane waves:     250
 k-point 10 :   0.4091 0.0000 0.4375  plane waves:     248
 k-point 11 :   0.4545 0.0000 0.3750  plane waves:     250
 k-point 12 :   0.5000 0.0000 0.3125  plane waves:     248
 k-point 13 :   0.5455 0.0000 0.2500  plane waves:     251
 k-point 14 :   0.5909 0.0000 0.1875  plane waves:     254
 k-point 15 :   0.6364 0.0000 0.1250  plane waves:     254
 k-point 16 :   0.6818 0.0000 0.0625  plane waves:     251
 k-point 17 :   0.7273 0.0000 0.0000  plane waves:     251
 k-point 18 :   0.7727 0.0000 0.9375  plane waves:     248
 k-point 19 :   0.8182 0.0000 0.8750  plane waves:     247
 k-point 20 :   0.9091 0.0000 0.7500  plane waves:     247
 k-point 21 :   0.9545 0.0000 0.6875  plane waves:     257
 k-point 22 :   0.0000 0.0000 0.6250  plane waves:     258
 k-point 23 :   0.0455 0.0000 0.5625  plane waves:     258
 k-point 24 :   0.0909 0.0000 0.5000  plane waves:     256
 k-point 25 :   0.1364 0.0000 0.4375  plane waves:     256
 k-point 26 :   0.1818 0.0000 0.3750  plane waves:     253
 k-point 27 :   0.2727 0.0000 0.2500  plane waves:     252
 k-point 28 :   0.3182 0.0000 0.1875  plane waves:     254
 k-point 29 :   0.4091 0.0000 0.0625  plane waves:     254
 k-point 30 :   0.4545 0.0000 0.0000  plane waves:     255
 k-point 31 :   0.5000 0.0000 0.9375  plane waves:     254
 k-point 32 :   0.5455 0.0000 0.8750  plane waves:     255
 k-point 33 :   0.6364 0.0000 0.7500  plane waves:     253
 k-point 34 :   0.6818 0.0000 0.6875  plane waves:     251
 k-point 35 :   0.7727 0.0000 0.5625  plane waves:     258
 k-point 36 :   0.8182 0.0000 0.5000  plane waves:     252
 k-point 37 :   0.9091 0.0000 0.3750  plane waves:     258
 k-point 38 :   0.0000 0.0000 0.2500  plane waves:     254
 k-point 39 :   0.0455 0.0000 0.1875  plane waves:     244
 k-point 40 :   0.1364 0.0000 0.0625  plane waves:     243
 k-point 41 :   0.1818 0.0000 0.0000  plane waves:     247
 k-point 42 :   0.2727 0.0000 0.8750  plane waves:     251
 k-point 43 :   0.4091 0.0000 0.6875  plane waves:     249
 k-point 44 :   0.5000 0.0000 0.5625  plane waves:     240
 k-point 45 :   0.5455 0.0000 0.5000  plane waves:     242
 k-point 46 :   0.6364 0.0000 0.3750  plane waves:     246
 k-point 47 :   0.7727 0.0000 0.1875  plane waves:     250
 k-point 48 :   0.9091 0.0000 0.0000  plane waves:     243
 k-point 49 :   0.0000 0.0000 0.8750  plane waves:     242
 k-point 50 :   0.1364 0.0000 0.6875  plane waves:     251
 k-point 51 :   0.2727 0.0000 0.5000  plane waves:     252
 k-point 52 :   0.5000 0.0000 0.1875  plane waves:     256
 k-point 53 :   0.6364 0.0000 0.0000  plane waves:     249
 k-point 54 :   0.0000 0.0000 0.5000  plane waves:     250
 k-point 55 :   0.0455 0.9545 0.8750  plane waves:     243
 k-point 56 :   0.0909 0.9545 0.8125  plane waves:     247
 k-point 57 :   0.1364 0.9545 0.7500  plane waves:     250
 k-point 58 :   0.1818 0.9545 0.6875  plane waves:     251
 k-point 59 :   0.2273 0.9545 0.6250  plane waves:     252
 k-point 60 :   0.2727 0.9545 0.5625  plane waves:     255
 k-point 61 :   0.3182 0.9545 0.5000  plane waves:     250
 k-point 62 :   0.3636 0.9545 0.4375  plane waves:     248
 k-point 63 :   0.4091 0.9545 0.3750  plane waves:     249
 k-point 64 :   0.4545 0.9545 0.3125  plane waves:     248
 k-point 65 :   0.5000 0.9545 0.2500  plane waves:     250
 k-point 66 :   0.5455 0.9545 0.1875  plane waves:     253
 k-point 67 :   0.5909 0.9545 0.1250  plane waves:     255
 k-point 68 :   0.6364 0.9545 0.0625  plane waves:     253
 k-point 69 :   0.6818 0.9545 0.0000  plane waves:     253
 k-point 70 :   0.7273 0.9545 0.9375  plane waves:     249
 k-point 71 :   0.7727 0.9545 0.8750  plane waves:     250
 k-point 72 :   0.8182 0.9545 0.8125  plane waves:     249
 k-point 73 :   0.9091 0.9545 0.6875  plane waves:     251
 k-point 74 :   0.9545 0.9545 0.6250  plane waves:     256
 k-point 75 :   0.0455 0.9545 0.5000  plane waves:     256
 k-point 76 :   0.0909 0.9545 0.4375  plane waves:     257
 k-point 77 :   0.1364 0.9545 0.3750  plane waves:     254
 k-point 78 :   0.2273 0.9545 0.2500  plane waves:     251
 k-point 79 :   0.2727 0.9545 0.1875  plane waves:     252
 k-point 80 :   0.3182 0.9545 0.1250  plane waves:     251
 k-point 81 :   0.4091 0.9545 0.0000  plane waves:     251
 k-point 82 :   0.4545 0.9545 0.9375  plane waves:     251
 k-point 83 :   0.5000 0.9545 0.8750  plane waves:     252
 k-point 84 :   0.5909 0.9545 0.7500  plane waves:     251
 k-point 85 :   0.6364 0.9545 0.6875  plane waves:     248
 k-point 86 :   0.6818 0.9545 0.6250  plane waves:     249
 k-point 87 :   0.7727 0.9545 0.5000  plane waves:     260
 k-point 88 :   0.8182 0.9545 0.4375  plane waves:     255
 k-point 89 :   0.9545 0.9545 0.2500  plane waves:     249
 k-point 90 :   0.0909 0.9545 0.0625  plane waves:     243
 k-point 91 :   0.1364 0.9545 0.0000  plane waves:     246
 k-point 92 :   0.1818 0.9545 0.9375  plane waves:     246
 k-point 93 :   0.3182 0.9545 0.7500  plane waves:     251
 k-point 94 :   0.4545 0.9545 0.5625  plane waves:     247
 k-point 95 :   0.5000 0.9545 0.5000  plane waves:     240
 k-point 96 :   0.0455 0.9545 0.0000  plane waves:     241
 k-point 97 :   0.1364 0.9545 0.8750  plane waves:     245
 k-point 98 :   0.2727 0.9545 0.6875  plane waves:     254
 k-point 99 :   0.4091 0.9545 0.5000  plane waves:     250
 k-point ** :   0.5000 0.9545 0.3750  plane waves:     250
 k-point ** :   0.6364 0.9545 0.1875  plane waves:     254
 k-point ** :   0.7727 0.9545 0.0000  plane waves:     250
 k-point ** :   0.1364 0.9545 0.5000  plane waves:     258
 k-point ** :   0.5000 0.9545 0.0000  plane waves:     250
 k-point ** :   0.0909 0.9091 0.7500  plane waves:     247
 k-point ** :   0.1364 0.9091 0.6875  plane waves:     252
 k-point ** :   0.1818 0.9091 0.6250  plane waves:     255
 k-point ** :   0.2273 0.9091 0.5625  plane waves:     254
 k-point ** :   0.2727 0.9091 0.5000  plane waves:     254
 k-point ** :   0.3182 0.9091 0.4375  plane waves:     253
 k-point ** :   0.3636 0.9091 0.3750  plane waves:     248
 k-point ** :   0.4091 0.9091 0.3125  plane waves:     247
 k-point ** :   0.4545 0.9091 0.2500  plane waves:     248
 k-point ** :   0.5000 0.9091 0.1875  plane waves:     246
 k-point ** :   0.5455 0.9091 0.1250  plane waves:     248
 k-point ** :   0.5909 0.9091 0.0625  plane waves:     249
 k-point ** :   0.6364 0.9091 0.0000  plane waves:     254
 k-point ** :   0.6818 0.9091 0.9375  plane waves:     251
 k-point ** :   0.7273 0.9091 0.8750  plane waves:     250
 k-point ** :   0.7727 0.9091 0.8125  plane waves:     251
 k-point ** :   0.8182 0.9091 0.7500  plane waves:     250
 k-point ** :   0.9091 0.9091 0.6250  plane waves:     253
 k-point ** :   0.0909 0.9091 0.0000  plane waves:     243
 k-point ** :   0.1364 0.9091 0.9375  plane waves:     246
 k-point ** :   0.1818 0.9091 0.8750  plane waves:     250
 k-point ** :   0.2727 0.9091 0.7500  plane waves:     251
 k-point ** :   0.3182 0.9091 0.6875  plane waves:     249
 k-point ** :   0.4091 0.9091 0.5625  plane waves:     248
 k-point ** :   0.4545 0.9091 0.5000  plane waves:     248
 k-point ** :   0.5000 0.9091 0.4375  plane waves:     250
 k-point ** :   0.5455 0.9091 0.3750  plane waves:     247
 k-point ** :   0.6364 0.9091 0.2500  plane waves:     248
 k-point ** :   0.6818 0.9091 0.1875  plane waves:     251
 k-point ** :   0.7727 0.9091 0.0625  plane waves:     250
 k-point ** :   0.8182 0.9091 0.0000  plane waves:     243
 k-point ** :   0.9091 0.9091 0.8750  plane waves:     245
 k-point ** :   0.1364 0.9091 0.5625  plane waves:     258
 k-point ** :   0.1818 0.9091 0.5000  plane waves:     254
 k-point ** :   0.2727 0.9091 0.3750  plane waves:     255
 k-point ** :   0.4091 0.9091 0.1875  plane waves:     251
 k-point ** :   0.5000 0.9091 0.0625  plane waves:     250
 k-point ** :   0.5455 0.9091 0.0000  plane waves:     251
 k-point ** :   0.6364 0.9091 0.8750  plane waves:     252
 k-point ** :   0.7727 0.9091 0.6875  plane waves:     252
 k-point ** :   0.9091 0.9091 0.5000  plane waves:     256
 k-point ** :   0.1364 0.9091 0.1875  plane waves:     248
 k-point ** :   0.2727 0.9091 0.0000  plane waves:     250
 k-point ** :   0.5000 0.9091 0.6875  plane waves:     248
 k-point ** :   0.6364 0.9091 0.5000  plane waves:     250
 k-point ** :   0.1364 0.8636 0.6250  plane waves:     256
 k-point ** :   0.1818 0.8636 0.5625  plane waves:     256
 k-point ** :   0.2273 0.8636 0.5000  plane waves:     254
 k-point ** :   0.2727 0.8636 0.4375  plane waves:     253
 k-point ** :   0.3182 0.8636 0.3750  plane waves:     255
 k-point ** :   0.3636 0.8636 0.3125  plane waves:     250
 k-point ** :   0.4091 0.8636 0.2500  plane waves:     249
 k-point ** :   0.4545 0.8636 0.1875  plane waves:     248
 k-point ** :   0.5000 0.8636 0.1250  plane waves:     246
 k-point ** :   0.5455 0.8636 0.0625  plane waves:     249
 k-point ** :   0.5909 0.8636 0.0000  plane waves:     248
 k-point ** :   0.6364 0.8636 0.9375  plane waves:     248
 k-point ** :   0.6818 0.8636 0.8750  plane waves:     245
 k-point ** :   0.7273 0.8636 0.8125  plane waves:     248
 k-point ** :   0.7727 0.8636 0.7500  plane waves:     253
 k-point ** :   0.8182 0.8636 0.6875  plane waves:     254
 k-point ** :   0.1364 0.8636 0.2500  plane waves:     255
 k-point ** :   0.1818 0.8636 0.1875  plane waves:     250
 k-point ** :   0.2273 0.8636 0.1250  plane waves:     250
 k-point ** :   0.2727 0.8636 0.0625  plane waves:     252
 k-point ** :   0.3182 0.8636 0.0000  plane waves:     249
 k-point ** :   0.4091 0.8636 0.8750  plane waves:     247
 k-point ** :   0.5000 0.8636 0.7500  plane waves:     244
 k-point ** :   0.5455 0.8636 0.6875  plane waves:     248
 k-point ** :   0.5909 0.8636 0.6250  plane waves:     249
 k-point ** :   0.6364 0.8636 0.5625  plane waves:     251
 k-point ** :   0.6818 0.8636 0.5000  plane waves:     254
 k-point ** :   0.7727 0.8636 0.3750  plane waves:     254
 k-point ** :   0.1364 0.8636 0.8750  plane waves:     248
 k-point ** :   0.2727 0.8636 0.6875  plane waves:     253
 k-point ** :   0.4091 0.8636 0.5000  plane waves:     250
 k-point ** :   0.4545 0.8636 0.4375  plane waves:     249
 k-point ** :   0.5000 0.8636 0.3750  plane waves:     246
 k-point ** :   0.6364 0.8636 0.1875  plane waves:     249
 k-point ** :   0.7727 0.8636 0.0000  plane waves:     247
 k-point ** :   0.8182 0.8636 0.9375  plane waves:     249
 k-point ** :   0.1364 0.8636 0.5000  plane waves:     254
 k-point ** :   0.3182 0.8636 0.2500  plane waves:     251
 k-point ** :   0.5000 0.8636 0.0000  plane waves:     248
 k-point ** :   0.1364 0.8636 0.0000  plane waves:     245
 k-point ** :   0.5000 0.8636 0.5000  plane waves:     248
 k-point ** :   0.1818 0.8182 0.5000  plane waves:     254
 k-point ** :   0.2273 0.8182 0.4375  plane waves:     256
 k-point ** :   0.2727 0.8182 0.3750  plane waves:     252
 k-point ** :   0.3182 0.8182 0.3125  plane waves:     251
 k-point ** :   0.3636 0.8182 0.2500  plane waves:     247
 k-point ** :   0.4091 0.8182 0.1875  plane waves:     243
 k-point ** :   0.4545 0.8182 0.1250  plane waves:     246
 k-point ** :   0.5000 0.8182 0.0625  plane waves:     246
 k-point ** :   0.5455 0.8182 0.0000  plane waves:     249
 k-point ** :   0.5909 0.8182 0.9375  plane waves:     246
 k-point ** :   0.6364 0.8182 0.8750  plane waves:     248
 k-point ** :   0.6818 0.8182 0.8125  plane waves:     246
 k-point ** :   0.7273 0.8182 0.7500  plane waves:     250
 k-point ** :   0.7727 0.8182 0.6875  plane waves:     254
 k-point ** :   0.8182 0.8182 0.6250  plane waves:     254
 k-point ** :   0.1818 0.8182 0.1250  plane waves:     248
 k-point ** :   0.2273 0.8182 0.0625  plane waves:     245
 k-point ** :   0.2727 0.8182 0.0000  plane waves:     246
 k-point ** :   0.3182 0.8182 0.9375  plane waves:     246
 k-point ** :   0.4545 0.8182 0.7500  plane waves:     247
 k-point ** :   0.5000 0.8182 0.6875  plane waves:     246
 k-point ** :   0.5455 0.8182 0.6250  plane waves:     246
 k-point ** :   0.5909 0.8182 0.5625  plane waves:     248
 k-point ** :   0.6364 0.8182 0.5000  plane waves:     252
 k-point ** :   0.6818 0.8182 0.4375  plane waves:     255
 k-point ** :   0.8182 0.8182 0.2500  plane waves:     256
 k-point ** :   0.1818 0.8182 0.0000  plane waves:     249
 k-point ** :   0.2727 0.8182 0.8750  plane waves:     246
 k-point ** :   0.4091 0.8182 0.6875  plane waves:     250
 k-point ** :   0.5000 0.8182 0.5625  plane waves:     246
 k-point ** :   0.5455 0.8182 0.5000  plane waves:     246
 k-point ** :   0.6364 0.8182 0.3750  plane waves:     251
 k-point ** :   0.7727 0.8182 0.1875  plane waves:     248
 k-point ** :   0.2727 0.8182 0.5000  plane waves:     258
 k-point ** :   0.5000 0.8182 0.1875  plane waves:     246
 k-point ** :   0.6364 0.8182 0.0000  plane waves:     245
 k-point ** :   0.2273 0.7727 0.3750  plane waves:     253
 k-point ** :   0.2727 0.7727 0.3125  plane waves:     249
 k-point ** :   0.3182 0.7727 0.2500  plane waves:     249
 k-point ** :   0.3636 0.7727 0.1875  plane waves:     246
 k-point ** :   0.4091 0.7727 0.1250  plane waves:     246
 k-point ** :   0.4545 0.7727 0.0625  plane waves:     248
 k-point ** :   0.5000 0.7727 0.0000  plane waves:     248
 k-point ** :   0.2273 0.7727 0.0000  plane waves:     245
 k-point ** :   0.2727 0.7727 0.9375  plane waves:     244
 k-point ** :   0.3182 0.7727 0.8750  plane waves:     245
 k-point ** :   0.4091 0.7727 0.7500  plane waves:     245
 k-point ** :   0.4545 0.7727 0.6875  plane waves:     248
 k-point ** :   0.5000 0.7727 0.6250  plane waves:     246
 k-point ** :   0.5455 0.7727 0.5625  plane waves:     245
 k-point ** :   0.5909 0.7727 0.5000  plane waves:     250
 k-point ** :   0.6364 0.7727 0.4375  plane waves:     251
 k-point ** :   0.6818 0.7727 0.3750  plane waves:     251
 k-point ** :   0.7727 0.7727 0.2500  plane waves:     253
 k-point ** :   0.2727 0.7727 0.5625  plane waves:     253
 k-point ** :   0.3182 0.7727 0.5000  plane waves:     250
 k-point ** :   0.4091 0.7727 0.3750  plane waves:     246
 k-point ** :   0.5000 0.7727 0.2500  plane waves:     244
 k-point ** :   0.5455 0.7727 0.1875  plane waves:     245
 k-point ** :   0.6364 0.7727 0.0625  plane waves:     246
 k-point ** :   0.6818 0.7727 0.0000  plane waves:     241
 k-point ** :   0.7727 0.7727 0.8750  plane waves:     245
 k-point ** :   0.2727 0.7727 0.1875  plane waves:     248
 k-point ** :   0.4091 0.7727 0.0000  plane waves:     247
 k-point ** :   0.5000 0.7727 0.8750  plane waves:     244
 k-point ** :   0.6364 0.7727 0.6875  plane waves:     248
 k-point ** :   0.7727 0.7727 0.5000  plane waves:     254
 k-point ** :   0.5000 0.7727 0.5000  plane waves:     244
 k-point ** :   0.2727 0.7273 0.2500  plane waves:     248
 k-point ** :   0.3182 0.7273 0.1875  plane waves:     246
 k-point ** :   0.3636 0.7273 0.1250  plane waves:     247
 k-point ** :   0.4091 0.7273 0.0625  plane waves:     246
 k-point ** :   0.4545 0.7273 0.0000  plane waves:     247
 k-point ** :   0.5000 0.7273 0.9375  plane waves:     246
 k-point ** :   0.5455 0.7273 0.8750  plane waves:     246
 k-point ** :   0.5909 0.7273 0.8125  plane waves:     245
 k-point ** :   0.6364 0.7273 0.7500  plane waves:     244
 k-point ** :   0.6818 0.7273 0.6875  plane waves:     248
 k-point ** :   0.7273 0.7273 0.6250  plane waves:     249
 k-point ** :   0.2727 0.7273 0.8750  plane waves:     244
 k-point ** :   0.4091 0.7273 0.6875  plane waves:     245
 k-point ** :   0.4545 0.7273 0.6250  plane waves:     244
 k-point ** :   0.5000 0.7273 0.5625  plane waves:     240
 k-point ** :   0.5455 0.7273 0.5000  plane waves:     242
 k-point ** :   0.5909 0.7273 0.4375  plane waves:     245
 k-point ** :   0.6364 0.7273 0.3750  plane waves:     247
 k-point ** :   0.2727 0.7273 0.5000  plane waves:     250
 k-point ** :   0.3182 0.7273 0.4375  plane waves:     248
 k-point ** :   0.4545 0.7273 0.2500  plane waves:     246
 k-point ** :   0.5000 0.7273 0.1875  plane waves:     246
 k-point ** :   0.6364 0.7273 0.0000  plane waves:     245
 k-point ** :   0.6818 0.7273 0.9375  plane waves:     245
 k-point ** :   0.2727 0.7273 0.0000  plane waves:     245
 k-point ** :   0.5000 0.7273 0.6875  plane waves:     244
 k-point ** :   0.6364 0.7273 0.5000  plane waves:     250
 k-point ** :   0.3182 0.6818 0.1250  plane waves:     245
 k-point ** :   0.3636 0.6818 0.0625  plane waves:     249
 k-point ** :   0.4091 0.6818 0.0000  plane waves:     248
 k-point ** :   0.4545 0.6818 0.9375  plane waves:     244
 k-point ** :   0.5000 0.6818 0.8750  plane waves:     244
 k-point ** :   0.5455 0.6818 0.8125  plane waves:     247
 k-point ** :   0.5909 0.6818 0.7500  plane waves:     244
 k-point ** :   0.6364 0.6818 0.6875  plane waves:     245
 k-point ** :   0.6818 0.6818 0.6250  plane waves:     248
 k-point ** :   0.3182 0.6818 0.7500  plane waves:     247
 k-point ** :   0.4091 0.6818 0.6250  plane waves:     242
 k-point ** :   0.4545 0.6818 0.5625  plane waves:     241
 k-point ** :   0.5000 0.6818 0.5000  plane waves:     236
 k-point ** :   0.3182 0.6818 0.0000  plane waves:     249
 k-point ** :   0.4091 0.6818 0.8750  plane waves:     245
 k-point ** :   0.5000 0.6818 0.7500  plane waves:     248
 k-point ** :   0.5455 0.6818 0.6875  plane waves:     243
 k-point ** :   0.6364 0.6818 0.5625  plane waves:     247
 k-point ** :   0.6818 0.6818 0.5000  plane waves:     252
 k-point ** :   0.4091 0.6818 0.5000  plane waves:     242
 k-point ** :   0.5000 0.6818 0.3750  plane waves:     242
 k-point ** :   0.6364 0.6818 0.1875  plane waves:     244
 k-point ** :   0.5000 0.6818 0.0000  plane waves:     244
 k-point ** :   0.3636 0.6364 0.0000  plane waves:     249
 k-point ** :   0.4091 0.6364 0.9375  plane waves:     244
 k-point ** :   0.4545 0.6364 0.8750  plane waves:     241
 k-point ** :   0.5000 0.6364 0.8125  plane waves:     242
 k-point ** :   0.5455 0.6364 0.7500  plane waves:     245
 k-point ** :   0.5909 0.6364 0.6875  plane waves:     242
 k-point ** :   0.6364 0.6364 0.6250  plane waves:     244
 k-point ** :   0.4091 0.6364 0.5625  plane waves:     241
 k-point ** :   0.4545 0.6364 0.5000  plane waves:     236
 k-point ** :   0.5000 0.6364 0.4375  plane waves:     238
 k-point ** :   0.5455 0.6364 0.3750  plane waves:     239
 k-point ** :   0.6364 0.6364 0.2500  plane waves:     245
 k-point ** :   0.4091 0.6364 0.1875  plane waves:     244
 k-point ** :   0.5000 0.6364 0.0625  plane waves:     240
 k-point ** :   0.5455 0.6364 0.0000  plane waves:     239
 k-point ** :   0.6364 0.6364 0.8750  plane waves:     244
 k-point ** :   0.5000 0.6364 0.6875  plane waves:     244
 k-point ** :   0.6364 0.6364 0.5000  plane waves:     242
 k-point ** :   0.4091 0.5909 0.8750  plane waves:     243
 k-point ** :   0.4545 0.5909 0.8125  plane waves:     241
 k-point ** :   0.5000 0.5909 0.7500  plane waves:     244
 k-point ** :   0.5455 0.5909 0.6875  plane waves:     241
 k-point ** :   0.5909 0.5909 0.6250  plane waves:     242
 k-point ** :   0.4091 0.5909 0.5000  plane waves:     234
 k-point ** :   0.4545 0.5909 0.4375  plane waves:     236
 k-point ** :   0.5000 0.5909 0.3750  plane waves:     236
 k-point ** :   0.5909 0.5909 0.2500  plane waves:     243
 k-point ** :   0.4545 0.5909 0.0625  plane waves:     236
 k-point ** :   0.5000 0.5909 0.0000  plane waves:     236
 k-point ** :   0.4091 0.5909 0.0000  plane waves:     239
 k-point ** :   0.5000 0.5909 0.8750  plane waves:     238
 k-point ** :   0.5000 0.5909 0.5000  plane waves:     232
 k-point ** :   0.4545 0.5455 0.7500  plane waves:     242
 k-point ** :   0.5000 0.5455 0.6875  plane waves:     242
 k-point ** :   0.5455 0.5455 0.6250  plane waves:     238
 k-point ** :   0.4545 0.5455 0.0000  plane waves:     233
 k-point ** :   0.5000 0.5455 0.9375  plane waves:     232
 k-point ** :   0.5455 0.5455 0.8750  plane waves:     236
 k-point ** :   0.5000 0.5455 0.5625  plane waves:     232
 k-point ** :   0.5455 0.5455 0.5000  plane waves:     232
 k-point ** :   0.5000 0.5455 0.1875  plane waves:     238
 k-point ** :   0.5000 0.5000 0.6250  plane waves:     232
 k-point ** :   0.5000 0.5000 0.2500  plane waves:     240
 k-point ** :   0.5000 0.5000 0.8750  plane waves:     236
 k-point ** :   0.5000 0.5000 0.5000  plane waves:     232
 k-point ** :   0.5000 0.5000 0.0000  plane waves:     232

 maximum and minimum number of plane-waves per node :       260      232

 maximum number of plane-waves:       260
 maximum index in each direction: 
   IXMAX=    3   IYMAX=    3   IZMAX=    4
   IXMIN=   -4   IYMIN=   -4   IZMIN=   -5


 serial   3D FFT for wavefunctions
 parallel 3D FFT for charge:
    minimum data exchange during FFTs selected (reduces bandwidth)


 total amount of memory used by VASP MPI-rank0    78081. kBytes
=======================================================================

   base      :      30000. kBytes
   nonl-proj :      26515. kBytes
   fftplans  :       1116. kBytes
   grid      :       1978. kBytes
   one-center:         31. kBytes
   wavefun   :      18441. kBytes
 
     INWAV:  cpu time    0.0000: real time    0.0002
 Broyden mixing: mesh for mixing (old mesh)
   NGX =  7   NGY =  7   NGZ =  9
  (NGX  = 28   NGY  = 28   NGZ  = 40)
  gives a total of    441 points

 initial charge density was supplied:
 charge density of overlapping atoms calculated
 number of electron      14.0000000 magnetization 
 keeping initial charge density in first step


--------------------------------------------------------------------------------------------------------


 Maximum index for augmentation-charges         9183 (set IRDMAX)


[...]
  band No.  band energies     occupation 
      1       5.0984      2.00000
      2       5.1557      2.00000
      3       5.5795      2.00000
      4       5.7229      2.00000
      5       5.8527      2.00000
      6       6.1546      2.00000
      7       7.0877      2.00093
      8       8.1731     -0.00077
      9       9.3215     -0.00000
     10      10.5934     -0.00000
     11      14.2014      0.00000

 k-point   333 :       0.4545    0.5909    0.4375
  band No.  band energies     occupation 
      1       4.9581      2.00000
      2       5.0020      2.00000
      3       5.4722      2.00000
      4       5.5568      2.00000
      5       6.1437      2.00000
      6       6.4086      2.00000
      7       7.1539      2.00418
      8       8.1772     -0.00069
      9       9.3715     -0.00000
     10      10.8127     -0.00000
     11      14.4022      0.00000

 k-point   334 :       0.5000    0.5909    0.3750
  band No.  band energies     occupation 
      1       4.7123      2.00000
      2       4.8673      2.00000
      3       5.2889      2.00000
      4       5.3128      2.00000
      5       6.5285      2.00000
      6       6.7859      2.00000
      7       7.3379      2.06018
      8       8.1987     -0.00040
      9       9.4468     -0.00000
     10      10.8814     -0.00000
     11      14.4627      0.00000

 k-point   335 :       0.5909    0.5909    0.2500
  band No.  band energies     occupation 
      1       4.2858      2.00000
      2       4.6049      2.00000
      3       4.9925      2.00000
      4       4.9939      2.00000
      5       7.1936      2.00906
      6       7.2616      2.02700
      7       7.8241     -0.04762
      8       8.4568     -0.00000
      9       9.5947     -0.00000
     10      10.5050     -0.00000
     11      11.9397     -0.00000

 k-point   336 :       0.4545    0.5909    0.0625
  band No.  band energies     occupation 
      1       3.7733      2.00000
      2       4.1947      2.00000
      3       4.6503      2.00000
      4       4.6626      2.00000
      5       7.7504      0.14307
      6       8.3609     -0.00000
      7       9.0092     -0.00000
      8       9.3298     -0.00000
      9       9.7694     -0.00000
     10      10.1911     -0.00000
     11      10.7560     -0.00000

 k-point   337 :       0.5000    0.5909    0.0000
  band No.  band energies     occupation 
      1       3.7236      2.00000
      2       4.1489      2.00000
      3       4.6149      2.00000
      4       4.6167      2.00000
      5       7.8191     -0.04169
      6       8.4450     -0.00000
      7       9.4582     -0.00000
      8       9.5951     -0.00000
      9       9.6354     -0.00000
     10       9.9992     -0.00000
     11      10.8495     -0.00000

 k-point   338 :       0.4091    0.5909    0.0000
  band No.  band energies     occupation 
      1       3.7873      2.00000
      2       4.2219      2.00000
      3       4.6853      2.00000
      4       4.7122      2.00000
      5       7.5955      1.25932
      6       8.2761     -0.00004
      7       9.2945     -0.00000
      8       9.3350     -0.00000
      9       9.6219     -0.00000
     10       9.9469     -0.00000
     11      10.0858     -0.00000

 k-point   339 :       0.5000    0.5909    0.8750
  band No.  band energies     occupation 
      1       3.8527      2.00000
      2       4.2571      2.00000
      3       4.6949      2.00000
      4       4.6966      2.00000
      5       7.7402      0.18942
      6       8.2910     -0.00003
      7       8.6255     -0.00000
      8       8.8458     -0.00000
      9       9.7918     -0.00000
     10      10.5079     -0.00000
     11      11.6767     -0.00000

 k-point   340 :       0.5000    0.5909    0.5000
  band No.  band energies     occupation 
      1       5.0212      2.00000
      2       5.0243      2.00000
      3       5.5737      2.00000
      4       5.7587      2.00000
      5       5.8931      2.00000
      6       6.3282      2.00000
      7       7.0607      2.00047
      8       8.1699     -0.00083
      9       9.3509     -0.00000
     10      10.8984     -0.00000
     11      15.3340      0.00000

 k-point   341 :       0.4545    0.5455    0.7500
  band No.  band energies     occupation 
      1       4.1663      2.00000
      2       4.5071      2.00000
      3       4.9013      2.00000
      4       4.9025      2.00000
      5       7.5374      1.67771
      6       7.5862      1.33349
      7       7.8860     -0.06944
      8       8.2835     -0.00003
      9       9.6852     -0.00000
     10      11.0040     -0.00000
     11      12.8762     -0.00000

 k-point   342 :       0.5000    0.5455    0.6875
  band No.  band energies     occupation 
      1       4.3839      2.00000
      2       4.6581      2.00000
      3       5.0695      2.00000
      4       5.0718      2.00000
      5       7.1376      2.00295
      6       7.2165      2.01355
      7       7.6183      1.06980
      8       8.1860     -0.00055
      9       9.5888     -0.00000
     10      11.1273     -0.00000
     11      14.0335      0.00000

 k-point   343 :       0.5455    0.5455    0.6250
  band No.  band energies     occupation 
      1       4.6584      2.00000
      2       4.8300      2.00000
      3       5.2849      2.00000
      4       5.3055      2.00000
      5       6.6733      2.00000
      6       6.7410      2.00000
      7       7.3600      2.06783
      8       8.1790     -0.00066
      9       9.4774     -0.00000
     10      11.0443     -0.00000
     11      14.3191      0.00000

 k-point   344 :       0.4545    0.5455    0.0000
  band No.  band energies     occupation 
      1       3.6699      2.00000
      2       4.1147      2.00000
      3       4.5717      2.00000
      4       4.5781      2.00000
      5       8.0008     -0.02371
      6       8.4394     -0.00000
      7       9.5219     -0.00000
      8       9.6085     -0.00000
      9       9.8166     -0.00000
     10      10.4498     -0.00000
     11      10.5871     -0.00000

 k-point   345 :       0.5000    0.5455    0.9375
  band No.  band energies     occupation 
      1       3.6788      2.00000
      2       4.1252      2.00000
      3       4.5746      2.00000
      4       4.5753      2.00000
      5       8.0687     -0.00764
      6       8.4265     -0.00000
      7       9.2830     -0.00000
      8       9.3031     -0.00000
      9       9.9057     -0.00000
     10      10.7221     -0.00000
     11      11.1804     -0.00000

 k-point   346 :       0.5455    0.5455    0.8750
  band No.  band energies     occupation 
      1       3.8009      2.00000
      2       4.2236      2.00000
      3       4.6543      2.00000
      4       4.6598      2.00000
      5       7.9503     -0.04438
      6       8.2934     -0.00003
      7       8.6462     -0.00000
      8       8.8973     -0.00000
      9       9.8469     -0.00000
     10      10.8410     -0.00000
     11      11.4875     -0.00000

 k-point   347 :       0.5000    0.5455    0.5625
  band No.  band energies     occupation 
      1       4.8303      2.00000
      2       4.9188      2.00000
      3       5.5177      2.00000
      4       5.5370      2.00000
      5       6.3342      2.00000
      6       6.4240      2.00000
      7       7.1406      2.00315
      8       8.1661     -0.00092
      9       9.4107     -0.00000
     10      11.1405     -0.00000
     11      15.6097      0.00000

 k-point   348 :       0.5455    0.5455    0.5000
  band No.  band energies     occupation 
      1       4.9474      2.00000
      2       4.9795      2.00000
      3       5.6548      2.00000
      4       5.6929      2.00000
      5       6.1058      2.00000
      6       6.1998      2.00000
      7       7.0699      2.00060
      8       8.1648     -0.00095
      9       9.3764     -0.00000
     10      11.0534     -0.00000
     11      15.5255      0.00000

 k-point   349 :       0.5000    0.5455    0.1875
  band No.  band energies     occupation 
      1       3.9345      2.00000
      2       4.3328      2.00000
      3       4.7413      2.00000
      4       4.7418      2.00000
      5       7.9283     -0.05452
      6       8.1247     -0.00241
      7       8.2132     -0.00027
      8       8.4021     -0.00000
      9       9.7959     -0.00000
     10      11.0707     -0.00000
     11      12.5007     -0.00000

 k-point   350 :       0.5000    0.5000    0.6250
  band No.  band energies     occupation 
      1       4.6008      2.00000
      2       4.7910      2.00000
      3       5.2855      2.00000
      4       5.2855      2.00000
      5       6.7875      2.00000
      6       6.7875      2.00000
      7       7.3467      2.06362
      8       8.1636     -0.00097
      9       9.4946     -0.00000
     10      11.2331     -0.00000
     11      14.9735      0.00000

 k-point   351 :       0.5000    0.5000    0.2500
  band No.  band energies     occupation 
      1       4.1170      2.00000
      2       4.4730      2.00000
      3       4.8714      2.00000
      4       4.8714      2.00000
      5       7.7193      0.30108
      6       7.7193      0.30108
      7       7.8946     -0.06742
      8       8.1617     -0.00102
      9       9.7123     -0.00000
     10      11.2322     -0.00000
     11      13.3346      0.00000

 k-point   352 :       0.5000    0.5000    0.8750
  band No.  band energies     occupation 
      1       3.7507      2.00000
      2       4.1891      2.00000
      3       4.6175      2.00000
      4       4.6175      2.00000
      5       8.1609     -0.00104
      6       8.3239     -0.00001
      7       8.7953     -0.00000
      8       8.7953     -0.00000
      9       9.8918     -0.00000
     10      11.2313     -0.00000
     11      11.8331     -0.00000

 k-point   353 :       0.5000    0.5000    0.5000
  band No.  band energies     occupation 
      1       4.8741      2.00000
      2       4.9361      2.00000
      3       5.6825      2.00000
      4       5.6825      2.00000
      5       6.2140      2.00000
      6       6.2140      2.00000
      7       7.0418      2.00028
      8       8.1634     -0.00098
      9       9.3902     -0.00000
     10      11.2334     -0.00000
     11      16.6478      0.00000

 k-point   354 :       0.5000    0.5000    0.0000
  band No.  band energies     occupation 
      1       3.6189      2.00000
      2       4.0796      2.00000
      3       4.5331      2.00000
      4       4.5331      2.00000
      5       8.1606     -0.00105
      6       8.4781     -0.00000
      7       9.6040     -0.00000
      8       9.6040     -0.00000
      9       9.9574     -0.00000
     10      10.8818     -0.00000
     11      10.8818     -0.00000


--------------------------------------------------------------------------------------------------------


 soft charge-density along one line, spin component           1
         0         1         2         3         4         5         6         7         8         9
 total charge-density along one line
 
 pseudopotential strength for first ion, spin component:           1
 -1.527  -0.000  -0.000   0.000  -0.000  -2.131  -0.000  -0.000
 -0.000  -1.517   0.000   0.000  -0.000  -0.000  -2.122   0.000
 -0.000   0.000  -1.555  -0.000  -0.000  -0.000   0.000  -2.158
  0.000   0.000  -0.000  -1.517  -0.000   0.000   0.000  -0.000
 -0.000  -0.000  -0.000  -0.000  -1.449  -0.000  -0.000  -0.000
 -2.131  -0.000  -0.000   0.000  -0.000  -2.677  -0.000  -0.000
 -0.000  -2.122   0.000   0.000  -0.000  -0.000  -2.669   0.000
 -0.000   0.000  -2.158  -0.000  -0.000  -0.000   0.000  -2.703
  0.000   0.000  -0.000  -2.122  -0.000   0.000   0.000  -0.000
 -0.000  -0.000  -0.000  -0.000  -2.056  -0.000  -0.000  -0.000
 -0.000  -0.000   0.004   0.000  -0.000  -0.000  -0.000   0.004
 -0.000  -0.000   0.007   0.000  -0.000  -0.000  -0.000   0.006
 -0.000   0.000  -0.000   0.000  -0.000  -0.000   0.000  -0.000
  0.000   0.000   0.000  -0.000   0.000   0.000   0.000   0.000
  0.000   0.000   0.000   0.000  -0.000   0.000   0.000   0.000
 -0.000   0.000  -0.000   0.000  -0.000  -0.000   0.000  -0.000
  0.000   0.000   0.000  -0.000   0.000   0.000   0.000   0.000
  0.000   0.000   0.000   0.000  -0.000   0.000   0.000   0.000
 total augmentation occupancy for first ion, spin component:           1
  1.198   0.000   0.000   0.000  -0.000  -0.340   0.000   0.000   0.000  -0.000   0.000   0.000   0.000   0.000   0.000   0.000
  0.000   1.505   0.000   0.000  -0.000   0.000  -0.314  -0.000   0.000  -0.000   0.000  -0.000   0.000   0.000   0.000   0.000
  0.000  -0.000   1.769  -0.000   0.000   0.000   0.000  -0.639   0.000   0.000   0.013   0.007   0.000   0.000   0.000   0.000
  0.000   0.000   0.000   1.505   0.000  -0.000   0.000  -0.000  -0.314   0.000   0.000  -0.000   0.000   0.000   0.000   0.000
  0.000   0.000   0.000  -0.000   2.489  -0.000  -0.000   0.000   0.000  -0.851   0.000   0.000   0.000   0.000   0.000   0.000
 -0.340   0.000   0.000   0.000   0.000   0.869  -0.000   0.000   0.000   0.000   0.000   0.000   0.000   0.000   0.000   0.000
 -0.000  -0.314   0.000   0.000   0.000  -0.000   0.747   0.000   0.000   0.000  -0.000  -0.000   0.000   0.000   0.000   0.000
  0.000   0.000  -0.639  -0.000   0.000   0.000   0.000   0.971   0.000   0.000   0.045   0.002   0.000   0.000   0.000   0.000
 -0.000   0.000   0.000  -0.314  -0.000  -0.000   0.000   0.000   0.747  -0.000  -0.000  -0.000   0.000   0.000   0.000   0.000
  0.000   0.000   0.000  -0.000  -0.851  -0.000   0.000   0.000  -0.000   0.922   0.000   0.000   0.000   0.000   0.000   0.000
  0.000   0.000   0.013   0.000   0.000   0.000  -0.000   0.045  -0.000   0.000   2.118  -0.194   0.000   0.000   0.000   0.000
  0.000  -0.000   0.007  -0.000   0.000   0.000   0.000   0.002   0.000   0.000  -0.194   0.023   0.000   0.000   0.000   0.000
  0.000   0.000   0.000   0.000   0.000   0.000   0.000   0.000   0.000   0.000   0.000   0.000   0.284  -0.000   0.000  -0.023
  0.000   0.000   0.000   0.000   0.000   0.000   0.000   0.000   0.000   0.000   0.000   0.000   0.000   0.282  -0.000   0.000
  0.000   0.000   0.000   0.000   0.000   0.000   0.000   0.000   0.000   0.000   0.000   0.000   0.000  -0.000   0.284   0.000
  0.000   0.000   0.000   0.000   0.000   0.000   0.000   0.000   0.000   0.000   0.000   0.000  -0.023   0.000   0.000   0.002
  0.000   0.000   0.000   0.000   0.000   0.000   0.000   0.000   0.000   0.000   0.000   0.000   0.000  -0.021   0.000   0.000
  0.000   0.000   0.000   0.000   0.000   0.000   0.000   0.000   0.000   0.000   0.000   0.000   0.000   0.000  -0.023   0.000


------------------------ aborting loop because EDIFF is reached ----------------------------------------


    CHARGE:  cpu time    1.5858: real time    1.5917
    FORLOC:  cpu time    0.0070: real time    0.0072
    FORNL :  cpu time    1.5648: real time    1.5704
    STRESS:  cpu time    4.6663: real time    4.6849
    FORCOR:  cpu time    0.0840: real time    0.0845
    FORHAR:  cpu time    0.0220: real time    0.0215
    MIXING:  cpu time    0.0040: real time    0.0045
    OFIELD:  cpu time    0.0010: real time    0.0001

  FORCE on cell =-STRESS in cart. coord.  units (eV):
  Direction    XX          YY          ZZ          XY          YZ          ZX
  --------------------------------------------------------------------------------------
  Alpha Z    61.27344    61.27344    61.27344
  Ewald    -290.07642  -290.07642  -334.22385     0.00000     0.00000     0.00000
  Hartree    79.81836    79.81836    33.96637    -0.00000    -0.00000    -0.00000
  E(xc)     -67.82995   -67.82995   -67.38975     0.00000     0.00000    -0.00000
  Local     -65.41839   -65.41839    25.15852     0.00000     0.00000     0.00000
  n-local    -7.48914    -7.53717    -6.56532    -4.78480     0.25958     0.17201
  augment   174.99152   174.99152   173.69950     0.00000    -0.00000     0.00000
  Kinetic   112.63108   112.62972   110.81935     2.34544    -0.23049     0.00480
  Fock        0.00000     0.00000     0.00000     0.00000     0.00000     0.00000
  -------------------------------------------------------------------------------------
  Total      -2.12419    -2.12419    -3.26175     0.00000     0.00000    -0.00000
  in kB    -136.58115  -136.58115  -209.72355     0.00000     0.00000    -0.00000
  external pressure =     -160.96 kB  Pullay stress =        0.00 kB


 VOLUME and BASIS-vectors are now :
 -----------------------------------------------------------------------------
  energy-cutoff  :      267.97
  volume of cell :       24.92
      direct lattice vectors                 reciprocal lattice vectors
     1.840000000  1.840000000  0.000000000     0.271739130  0.271739130  0.000000000
    -1.840000000  1.840000000  0.000000000    -0.271739130  0.271739130  0.000000000
     0.000000000  0.000000000  3.680000000     0.000000000  0.000000000  0.271739130

  length of vectors
     2.602152955  2.602152955  3.680000000     0.384297164  0.384297164  0.271739130


 FORCES acting on ions
    electron-ion (+dipol)            ewald-force                    non-local-force                 convergence-correction
 -----------------------------------------------------------------------------------------------
   -.366E-14 -.251E-14 0.121E-13   0.125E-14 -.142E-14 -.589E-14   0.000E+00 0.000E+00 0.000E+00   -.596E-14 -.478E-14 -.345E-13
   0.205E-12 -.164E-12 -.120E-12   -.532E-15 0.259E-15 0.589E-14   0.331E-23 0.662E-23 0.000E+00   0.151E-14 0.203E-14 0.104E-13
 -----------------------------------------------------------------------------------------------
   0.201E-12 -.166E-12 -.108E-12   0.721E-15 -.116E-14 0.000E+00   0.331E-23 0.662E-23 0.000E+00   -.445E-14 -.274E-14 -.241E-13
 
 
 POSITION                                       TOTAL-FORCE (eV/Angst)
 -----------------------------------------------------------------------------------
      0.00000      0.00000      0.00000        -0.000000      0.000000      0.000000
      0.00000      1.84000      1.84000         0.000000     -0.000000      0.000000
 -----------------------------------------------------------------------------------
    total drift:                                0.000000     -0.000000     -0.000000


--------------------------------------------------------------------------------------------------------



  FREE ENERGIE OF THE ION-ELECTRON SYSTEM (eV)
  ---------------------------------------------------
  free  energy   TOTEN  =       -16.13821334 eV

  energy  without entropy=      -16.13728904  energy(sigma->0) =      -16.13790524
 


--------------------------------------------------------------------------------------------------------


    POTLOK:  cpu time    0.1090: real time    0.1108


--------------------------------------------------------------------------------------------------------


 writing wavefunctions
     LOOP+:  cpu time  219.8686: real time  221.1743
    4ORBIT:  cpu time    0.0000: real time    0.0001

 total amount of memory used by VASP MPI-rank0    78081. kBytes
=======================================================================

   base      :      30000. kBytes
   nonl-proj :      26515. kBytes
   fftplans  :       1116. kBytes
   grid      :       1978. kBytes
   one-center:         31. kBytes
   wavefun   :      18441. kBytes
 
  
  
 General timing and accounting informations for this job:
 ========================================================
  
                  Total CPU time used (sec):      222.151
                            User time (sec):      221.924
                          System time (sec):        0.227
                         Elapsed time (sec):      223.929
  
                   Maximum memory used (kb):       75100.
                   Average memory used (kb):           0.
  
                          Minor page faults:        20082
                          Major page faults:            7
                 Voluntary context switches:          234
