 vasp.6.0.0 18Apr17 (build Mar 23 2018 09:59:13) complex                        
  
 executed on             LinuxIFC date 2018.06.18  11:00:52
 running on    1 total cores
 distrk:  each k-point on    1 cores,    1 groups
 distr:  one band on NCORES_PER_BAND=   1 cores,    1 groups


--------------------------------------------------------------------------------------------------------


 INCAR:
 POTCAR:    PAW_PBE Co 02Aug2007                  
 POTCAR:    PAW_PBE V 08Apr2002                   
 POTCAR:    PAW_PBE W 08Apr2002                   
 POTCAR:    PAW_PBE Co 02Aug2007                  
   VRHFIN =Co: d8 s1                                                            
   LEXCH  = PE                                                                  
   EATOM  =   813.3670 eV,   59.7808 Ry                                         
                                                                                
   TITEL  = PAW_PBE Co 02Aug2007                                                
   LULTRA =        F    use ultrasoft PP ?                                      
   IUNSCR =        1    unscreen: 0-lin 1-nonlin 2-no                           
   RPACOR =    2.000    partial core radius                                     
   POMASS =   58.933; ZVAL   =    9.000    mass and valenz                      
   RCORE  =    2.300    outmost cutoff radius                                   
   RWIGS  =    2.460; RWIGS  =    1.302    wigner-seitz radius (au A)           
   ENMAX  =  267.968; ENMIN  =  200.976 eV                                      
   RCLOC  =    1.203    cutoff for local pot                                    
   LCOR   =        T    correct aug charges                                     
   LPAW   =        T    paw PP                                                  
   EAUG   =  477.818                                                            
   DEXC   =    0.000                                                            
   RMAX   =    2.360    core radius for proj-oper                               
   RAUG   =    1.300    factor for augmentation sphere                          
   RDEP   =    2.393    radius for radial grids                                 
   RDEPT  =    1.864    core radius for aug-charge                              
                                                                                
   Atomic configuration                                                         
    9 entries                                                                   
     n  l   j            E        occ.                                          
     1  0  0.50     -7587.6674   2.0000                                         
     2  0  0.50      -893.6084   2.0000                                         
     2  1  1.50      -764.5805   6.0000                                         
     3  0  0.50       -97.5973   2.0000                                         
     3  1  1.50       -60.9648   6.0000                                         
     3  2  2.50        -4.2382   8.0000                                         
     4  0  0.50        -4.3746   1.0000                                         
     4  1  1.50        -4.0817   0.0000                                         
     4  3  2.50        -1.3606   0.0000                                         
   Description                                                                  
     l       E           TYP  RCUT    TYP  RCUT                                 
     2     -4.2382362     23  2.300                                             
     2     -5.5988188     23  2.300                                             
     0     -4.3745797     23  2.300                                             
     0      5.7660125     23  2.300                                             
     1     -2.7211652     23  2.300                                             
     1     16.9860234     23  2.300                                             
  local pseudopotential read in
  partial core-charges read in
  partial kinetic energy density read in
  atomic valenz-charges read in
  non local Contribution for L=           2  read in
    real space projection operators read in
  non local Contribution for L=           2  read in
    real space projection operators read in
  non local Contribution for L=           0  read in
    real space projection operators read in
  non local Contribution for L=           0  read in
    real space projection operators read in
  non local Contribution for L=           1  read in
    real space projection operators read in
  non local Contribution for L=           1  read in
    real space projection operators read in
    PAW grid and wavefunctions read in
 
   number of l-projection  operators is LMAX  =           6
   number of lm-projection operators is LMMAX =          18
 
 POTCAR:    PAW_PBE V 08Apr2002                   
   VRHFIN =V: p6 d4 s1                                                          
   LEXCH  = PE                                                                  
   EATOM  =   170.8679 eV,   12.5584 Ry                                         
                                                                                
   TITEL  = PAW_PBE V 08Apr2002                                                 
   LULTRA =        F    use ultrasoft PP ?                                      
   IUNSCR =        1    unscreen: 0-lin 1-nonlin 2-no                           
   RPACOR =    2.000    partial core radius                                     
   POMASS =   50.941; ZVAL   =    5.000    mass and valenz                      
   RCORE  =    2.700    outmost cutoff radius                                   
   RWIGS  =    2.500; RWIGS  =    1.323    wigner-seitz radius (au A)           
   ENMAX  =  192.543; ENMIN  =  144.408 eV                                      
   RCLOC  =    1.779    cutoff for local pot                                    
   LCOR   =        T    correct aug charges                                     
   LPAW   =        T    paw PP                                                  
   EAUG   =  358.662                                                            
   DEXC   =    0.000                                                            
   RMAX   =    2.768    core radius for proj-oper                               
   RAUG   =    1.300    factor for augmentation sphere                          
   RDEP   =    2.762    radius for radial grids                                 
   RDEPT  =    2.240    core radius for aug-charge                              
                                                                                
   Atomic configuration                                                         
    9 entries                                                                   
     n  l   j            E        occ.                                          
     1  0  0.50     -5360.7193   2.0000                                         
     2  0  0.50      -598.4546   2.0000                                         
     2  1  1.50      -499.0155   6.0000                                         
     3  0  0.50       -66.5711   2.0000                                         
     3  1  1.50       -40.5282   6.0000                                         
     3  2  2.50        -2.4291   4.0000                                         
     4  0  0.50        -3.8743   1.0000                                         
     4  1  0.50        -2.7212   0.0000                                         
     4  3  2.50        -1.3606   0.0000                                         
   Description                                                                  
     l       E           TYP  RCUT    TYP  RCUT                                 
     2     -2.4290901     23  2.700                                             
     2     -3.7896727     23  2.700                                             
     0     -3.8742752     23  2.700                                             
     0     27.2116520     23  2.700                                             
     1     -2.7211652     23  2.700                                             
     1     27.2116520     23  2.700                                             
  local pseudopotential read in
  partial core-charges read in
  partial kinetic energy density read in
  atomic valenz-charges read in
  non local Contribution for L=           2  read in
    real space projection operators read in
  non local Contribution for L=           2  read in
    real space projection operators read in
  non local Contribution for L=           0  read in
    real space projection operators read in
  non local Contribution for L=           0  read in
    real space projection operators read in
  non local Contribution for L=           1  read in
    real space projection operators read in
  non local Contribution for L=           1  read in
    real space projection operators read in
    PAW grid and wavefunctions read in
 
   number of l-projection  operators is LMAX  =           6
   number of lm-projection operators is LMMAX =          18
 
 POTCAR:    PAW_PBE W 08Apr2002                   
   VRHFIN =W : 6s5d                                                             
   LEXCH  = PE                                                                  
   EATOM  =   204.6103 eV,   15.0384 Ry                                         
                                                                                
   TITEL  = PAW_PBE W 08Apr2002                                                 
   LULTRA =        F    use ultrasoft PP ?                                      
   IUNSCR =        1    unscreen: 0-lin 1-nonlin 2-no                           
   RPACOR =    2.330    partial core radius                                     
   POMASS =  183.850; ZVAL   =    6.000    mass and valenz                      
   RCORE  =    2.750    outmost cutoff radius                                   
   RWIGS  =    2.750; RWIGS  =    1.455    wigner-seitz radius (au A)           
   ENMAX  =  223.057; ENMIN  =  167.293 eV                                      
   RCLOC  =    2.147    cutoff for local pot                                    
   LCOR   =        T    correct aug charges                                     
   LPAW   =        T    paw PP                                                  
   EAUG   =  373.438                                                            
   DEXC   =    0.000                                                            
   RMAX   =    2.801    core radius for proj-oper                               
   RAUG   =    1.300    factor for augmentation sphere                          
   RDEP   =    2.886    radius for radial grids                                 
   RDEPT  =    2.230    core radius for aug-charge                              
                                                                                
   Atomic configuration                                                         
   16 entries                                                                   
     n  l   j            E        occ.                                          
     1  0  0.50    -69465.5836   2.0000                                         
     2  0  0.50    -11986.2642   2.0000                                         
     2  1  1.50    -10479.8616   6.0000                                         
     3  0  0.50     -2759.0758   2.0000                                         
     3  1  1.50     -2313.1857   6.0000                                         
     3  2  2.50     -1801.1185  10.0000                                         
     4  0  0.50      -567.6791   2.0000                                         
     4  1  1.50      -421.4694   6.0000                                         
     4  2  2.50      -236.3473  10.0000                                         
     4  3  3.50       -31.2666  14.0000                                         
     5  0  0.50       -77.1085   2.0000                                         
     5  1  1.50       -41.3856   6.0000                                         
     5  2  2.50        -3.3185   5.0000                                         
     6  0  0.50        -5.1438   1.0000                                         
     6  1  0.50        -3.8096   0.0000                                         
     5  3  2.50        -1.3606   0.0000                                         
   Description                                                                  
     l       E           TYP  RCUT    TYP  RCUT                                 
     2     -3.3185288     23  2.500                                             
     2     -1.5965414     23  2.500                                             
     0     -5.1438054     23  2.500                                             
     0      4.9117504     23  2.500                                             
     1      2.7211652     23  2.750                                             
     1     27.2116520     23  2.750                                             
  local pseudopotential read in
  partial core-charges read in
  partial kinetic energy density read in
  atomic valenz-charges read in
  non local Contribution for L=           2  read in
    real space projection operators read in
  non local Contribution for L=           2  read in
    real space projection operators read in
  non local Contribution for L=           0  read in
    real space projection operators read in
  non local Contribution for L=           0  read in
    real space projection operators read in
  non local Contribution for L=           1  read in
    real space projection operators read in
  non local Contribution for L=           1  read in
    real space projection operators read in
    PAW grid and wavefunctions read in
 
   number of l-projection  operators is LMAX  =           6
   number of lm-projection operators is LMMAX =          18
 
  PAW_PBE Co 02Aug2007                  :
 energy of atom  1       EATOM= -813.3670
 kinetic energy error for atom=    0.0366 (will be added to EATOM!!)
  PAW_PBE V 08Apr2002                   :
 energy of atom  2       EATOM= -170.8679
 kinetic energy error for atom=    0.0066 (will be added to EATOM!!)
  PAW_PBE W 08Apr2002                   :
 energy of atom  3       EATOM= -204.6103
 kinetic energy error for atom=    0.0220 (will be added to EATOM!!)
 
 
 POSCAR: Co  V  W                                
  positions in cartesian coordinates
  No initial velocities read in
 exchange correlation table for  LEXCH =        8
   RHO(1)=    0.500       N(1)  =     2000
   RHO(2)=  100.500       N(2)  =     4000
 


--------------------------------------------------------------------------------------------------------


 ion  position               nearest neighbor table
   1  0.000  0.000  0.000-   4 2.71   2 2.71   4 2.71   2 2.71   4 2.71   2 2.71
   2  0.500  0.250  0.250-   1 2.71   1 2.71   3 2.71   1 2.71   3 2.71   3 2.71
   3  0.000  0.500  0.500-   2 2.71   2 2.71   4 2.71   2 2.71   4 2.71   4 2.71
   4  0.500  0.750  0.750-   3 2.71   1 2.71   3 2.71   1 2.71   3 2.71   1 2.71
 
  LATTYP: Found a trigonal (rhomboedric) cell.
 ALAT       =     8.9821461801
 COS(alpha) =     0.9545454545
  
  Lattice vectors:
  
 A1 = (  -5.7450000000,   3.8300000000,   5.7450000000)
 A2 = (  -3.8300000000,   5.7450000000,   5.7450000000)
 A3 = (  -5.7450000000,   5.7450000000,   3.8300000000)


Analysis of symmetry for initial positions (statically):
=====================================================================
 Subroutine PRICEL returns:
 Original cell was already a primitive cell.
 

 Routine SETGRP: Setting up the symmetry group for a 
 trigonal (rhombohedral) supercell.


 Subroutine GETGRP returns: Found  6 space group operations
 (whereof  6 operations were pure point group operations)
 out of a pool of 12 trial point group operations.


The static configuration has the point symmetry C_3v.


Analysis of symmetry for dynamics (positions and initial velocities):
=====================================================================
 Subroutine PRICEL returns:
 Original cell was already a primitive cell.
 

 Routine SETGRP: Setting up the symmetry group for a 
 trigonal (rhombohedral) supercell.


 Subroutine GETGRP returns: Found  6 space group operations
 (whereof  6 operations were pure point group operations)
 out of a pool of 12 trial point group operations.


The dynamic configuration has the point symmetry C_3v.


 Subroutine INISYM returns: Found  6 space group operations
 (whereof  6 operations are pure point group operations),
 and found     1 'primitive' translations

 
 
 KPOINTS: Server version 2018.05.22. K-point grid 
  k-points in reciprocal lattice
Space group operators:
 irot       det(A)        alpha          n_x          n_y          n_z        tau_x        tau_y        tau_z
    1     1.000000     0.000001     1.000000     0.000000     0.000000     0.000000     0.000000     0.000000
    2    -1.000000   179.999999     0.707107    -0.000000     0.707107     0.000000     0.000000     0.000000
    3     1.000000   120.000000     0.577350    -0.577350    -0.577350     0.000000     0.000000     0.000000
    4    -1.000000   179.999999    -0.707107    -0.707107     0.000000     0.000000     0.000000     0.000000
    5     1.000000   120.000000    -0.577350     0.577350     0.577350     0.000000     0.000000     0.000000
    6    -1.000000   180.000000    -0.000000     0.707107    -0.707107     0.000000     0.000000     0.000000


--------------------------------------------------------------------------------------------------------




 Dimension of arrays:
   k-points           NKPTS =    176   k-points in BZ     NKDIM =    176   number of bands    NBANDS=     17
   number of dos      NEDOS =    301   number of ions     NIONS =      4
   non local maximal  LDIM  =      6   non local SUM 2l+1 LMDIM =     18
   total plane-waves  NPLWV =   9408
   max r-space proj   IRMAX =      1   max aug-charges    IRDMAX=  10354
   dimension x,y,z NGX =    14 NGY =   48 NGZ =   14
   dimension x,y,z NGXF=    28 NGYF=   96 NGZF=   28
   support grid    NGXF=    28 NGYF=   96 NGZF=   28
   ions per type =               1   1   2
   NGX,Y,Z   is equivalent  to a cutoff of   8.59,  8.88,  8.59 a.u.
   NGXF,Y,Z  is equivalent  to a cutoff of  17.19, 17.77, 17.19 a.u.

 SYSTEM =  unknown system                          
 POSCAR =  Co  V  W                                

 Startparameter for this run:
   NWRITE =      2    write-flag & timer
   PREC   = a         normal or accurate (medium, high low for compatibility)
   ISTART =      0    job   : 0-new  1-cont  2-samecut
   ICHARG =      2    charge: 1-file 2-atom 10-const
   ISPIN  =      1    spin polarized calculation?
   LNONCOLLINEAR =      F non collinear calculations
   LSORBIT =      F    spin-orbit coupling
   INIWAV =      1    electr: 0-lowe 1-rand  2-diag
   LASPH  =      F    aspherical Exc in radial PAW
   METAGGA=      F    non-selfconsistent MetaGGA calc.

 Electronic Relaxation 1
   ENCUT  =  268.0 eV  19.70 Ry    4.44 a.u.   3.61 11.99  3.61*2*pi/ulx,y,z
   ENINI  =  268.0     initial cutoff
   ENAUG  =  477.8 eV  augmentation charge cutoff
   NELM   =     60;   NELMIN=  2; NELMDL= -5     # of ELM steps 
   EDIFF  = 0.1E-04   stopping-criterion for ELM
   LREAL  =      F    real-space projection
   NLSPLINE    = F    spline interpolate recip. space projectors
   LCOMPAT=      F    compatible to vasp.4.4
   GGA_COMPAT  = T    GGA compatible to vasp.4.4-vasp.4.6
   LMAXPAW     = -100 max onsite density
   LMAXMIX     =    2 max onsite mixed and CHGCAR
   VOSKOWN=      0    Vosko Wilk Nusair interpolation
   ROPT   =    0.00000   0.00000   0.00000
 Ionic relaxation
   EDIFFG = 0.1E-03   stopping-criterion for IOM
   NSW    =      0    number of steps for IOM
   NBLOCK =      1;   KBLOCK =      1    inner block; outer block 
   IBRION =     -1    ionic relax: 0-MD 1-quasi-New 2-CG
   NFREE  =      0    steps in history (QN), initial steepest desc. (CG)
   ISIF   =      2    stress and relaxation
   IWAVPR =     10    prediction:  0-non 1-charg 2-wave 3-comb
   ISYM   =      2    0-nonsym 1-usesym 2-fastsym
   LCORR  =      T    Harris-Foulkes like correction to forces

   POTIM  = 0.5000    time-step for ionic-motion
   TEIN   =    0.0    initial temperature
   TEBEG  =    0.0;   TEEND  =   0.0 temperature during run
   SMASS  =  -3.00    Nose mass-parameter (am)
   estimated Nose-frequenzy (Omega)   =  0.10E-29 period in steps =****** mass=  -0.168E-27a.u.
   SCALEE = 1.0000    scale energy and forces
   NPACO  =    256;   APACO  = 16.0  distance and # of slots for P.C.
   PSTRESS=    0.0 pullay stress

  Mass of Ions in am
   POMASS =  58.93 50.94183.85
  Ionic Valenz
   ZVAL   =   9.00  5.00  6.00
  Atomic Wigner-Seitz radii
   RWIGS  =  -1.00 -1.00 -1.00
  virtual crystal weights 
   VCA    =   1.00  1.00  1.00
   NELECT =      26.0000    total number of electrons
   NUPDOWN=      -1.0000    fix difference up-down

 DOS related values:
   EMIN   =  10.00;   EMAX   =-10.00  energy-range for DOS
   EFERMI =   0.00
   ISMEAR =     1;   SIGMA  =   0.20  broadening in eV -4-tet -1-fermi 0-gaus

 Electronic relaxation 2 (details)
   IALGO  =     38    algorithm
   LDIAG  =      T    sub-space diagonalisation (order eigenvalues)
   LSUBROT=      F    optimize rotation matrix (better conditioning)
   TURBO    =      0    0=normal 1=particle mesh
   IRESTART =      0    0=no restart 2=restart with 2 vectors
   NREBOOT  =      0    no. of reboots
   NMIN     =      0    reboot dimension
   EREF     =   0.00    reference energy to select bands
   IMIX   =      4    mixing-type and parameters
     AMIX     =   0.40;   BMIX     =  1.00
     AMIX_MAG =   1.60;   BMIX_MAG =  1.00
     AMIN     =   0.10
     WC   =   100.;   INIMIX=   1;  MIXPRE=   1;  MAXMIX= -45

 Intra band minimization:
   WEIMIN = 0.0000     energy-eigenvalue tresh-hold
   EBREAK =  0.15E-06  absolut break condition
   DEPER  =   0.30     relativ break condition  

   TIME   =   0.40     timestep for ELM

  volume/ion in A,a.u.               =      14.05        94.78
  Fermi-wavevector in a.u.,A,eV,Ry     =   1.266292  2.392945 21.816877  1.603495
  Thomas-Fermi vector in A             =   2.399500
 
 Write flags
   LWAVE        =      T    write WAVECAR
   LDOWNSAMPLE  =      F    k-point downsampling of WAVECAR
   LCHARG       =      T    write CHGCAR
   LVTOT        =      F    write LOCPOT, total local potential
   LVHAR        =      F    write LOCPOT, Hartree potential only
   LELF         =      F    write electronic localiz. function (ELF)
   LORBIT       =      0    0 simple, 1 ext, 2 COOP (PROOUT), +10 PAW based schemes


 Dipole corrections
   LMONO  =      F    monopole corrections only (constant potential shift)
   LDIPOL =      F    correct potential (dipole corrections)
   IDIPOL =      0    1-x, 2-y, 3-z, 4-all directions 
   EPSILON=  1.0000000 bulk dielectric constant

 Exchange correlation treatment:
   GGA     =    PE    GGA type
   LEXCH   =     8    internal setting for exchange type
   VOSKOWN=      0    Vosko Wilk Nusair interpolation
   LHFCALC =     F    Hartree Fock is set to
   LHFONE  =     F    Hartree Fock one center treatment
   AEXX    =    0.0000 exact exchange contribution

 Linear response parameters
   LEPSILON=     F    determine dielectric tensor
   LRPA    =     F    only Hartree local field effects (RPA)
   LNABLA  =     F    use nabla operator in PAW spheres
   LVEL    =     F    velocity operator in full k-point grid
   LINTERFAST=   F  fast interpolation
   KINTER  =     0    interpolate to denser k-point grid
   CSHIFT  =0.1000    complex shift for real part using Kramers Kronig
   OMEGAMAX=  -1.0    maximum frequency
   DEG_THRESHOLD= 0.2000000E-02 threshold for treating states as degnerate
   RTIME   =   -0.100 relaxation time in fs
  (WPLASMAI=    0.000 imaginary part of plasma frequency in eV, 0.658/RTIME)
   DFIELD  = 0.0000000 0.0000000 0.0000000 field for delta impulse in time
 
 Orbital magnetization related:
   ORBITALMAG=     F  switch on orbital magnetization
   LCHIMAG   =     F  perturbation theory with respect to B field
   DQ        =  0.001000  dq finite difference perturbation B field
   LLRAUG    =     F  two centre corrections for induced B field



--------------------------------------------------------------------------------------------------------


 Static calculation
 charge density and potential will be updated during run
 non-spin polarized calculation
 Variant of blocked Davidson
 Davidson routine will perform the subspace rotation
 perform sub-space diagonalisation
    after iterative eigenvector-optimisation
 modified Broyden-mixing scheme, WC =      100.0
 initial mixing is a Kerker type mixing with AMIX =  0.4000 and BMIX =      1.0000
 Hartree-type preconditioning will be used
 using additional bands            4
 reciprocal scheme for non local part
 use partial core corrections
 calculate Harris-corrections to forces 
   (improved forces if not selfconsistent)
 use gradient corrections 
 use of overlap-Matrix (Vanderbilt PP)
 Methfessel and Paxton  Order N= 1 SIGMA  =   0.20


--------------------------------------------------------------------------------------------------------


  energy-cutoff  :      267.97
  volume of cell :       56.18
      direct lattice vectors                 reciprocal lattice vectors
     1.915000000  1.915000000  0.000000000     0.391644909  0.130548303  0.130548303
    -3.830000000  5.745000000  5.745000000    -0.065274151  0.065274151  0.065274151
     0.000000000 -1.915000000  1.915000000     0.195822454 -0.195822454  0.326370757

  length of vectors
     2.708218972  8.982146180  2.708218972     0.432979738  0.113058147  0.428031235


 
 k-points in units of 2pi/SCALE and weight: Server version 2018.05.22. K-point grid 
  -0.04895561  0.04895561  0.04895561       0.001
  -0.02684663  0.04369157  0.04369157       0.003
  -0.00473764  0.03842752  0.03842752       0.003
   0.01737135  0.03316348  0.03316348       0.003
   0.03948033  0.02789944  0.02789944       0.003
   0.06158932  0.02263539  0.02263539       0.003
   0.01842416  0.08264550  0.08264550       0.003
   0.04053314  0.07738145  0.07738145       0.003
   0.06264213  0.07211741  0.07211741       0.003
   0.08475112  0.06685336  0.06685336       0.003
   0.10686010  0.06158932  0.06158932       0.003
   0.12896909  0.05632528  0.05632528       0.003
   0.15107808  0.05106123  0.05106123       0.003
   0.10791291  0.11107134  0.11107134       0.003
   0.13002190  0.10580729  0.10580729       0.003
   0.15213089  0.10054325  0.10054325       0.003
   0.00579045  0.01105449  0.01105449       0.003
  -0.03737472  0.07106460  0.07106460       0.003
  -0.01526573  0.06580056  0.06580056       0.003
   0.00684326  0.06053651  0.06053651       0.003
   0.02895224  0.05527247  0.05527247       0.003
   0.05106123  0.05000842  0.05000842       0.003
   0.07317022  0.04474438  0.04474438       0.003
   0.09527920  0.03948033  0.03948033       0.003
   0.05211404  0.09949044  0.09949044       0.003
   0.07422303  0.09422640  0.09422640       0.003
   0.09633201  0.08896235  0.08896235       0.003
   0.11844100  0.08369831  0.08369831       0.003
   0.14054999  0.07843426  0.07843426       0.003
   0.16265897  0.07317022  0.07317022       0.003
   0.18476796  0.06790617  0.06790617       0.003
   0.00052640  0.01631854  0.03316348       0.006
   0.02263539  0.01105449  0.02789944       0.006
  -0.02052977  0.07106460  0.08790954       0.006
   0.00157921  0.06580056  0.08264550       0.006
   0.02368820  0.06053651  0.07738145       0.006
   0.04579719  0.05527247  0.07211741       0.006
   0.06790617  0.05000842  0.06685336       0.006
   0.09001516  0.04474438  0.06158932       0.006
   0.11212415  0.03948033  0.05632528       0.006
   0.06895898  0.09949044  0.11633538       0.006
   0.09106797  0.09422640  0.11107134       0.006
   0.11317696  0.08896235  0.10580729       0.006
   0.13528594  0.08369831  0.10054325       0.006
   0.15739493  0.07843426  0.09527920       0.006
   0.17950392  0.07317022  0.09001516       0.006
   0.20161290  0.06790617  0.08475112       0.006
   0.15844774  0.12791628  0.14476122       0.006
   0.18055673  0.12265224  0.13949718       0.006
   0.20266571  0.11738819  0.13423313       0.006
   0.22477470  0.11212415  0.12896909       0.006
   0.24688369  0.10686010  0.12370505       0.006
   0.26899267  0.10159606  0.11844100       0.006
   0.29110166  0.09633201  0.11317696       0.006
   0.24793649  0.15634212  0.17318706       0.006
   0.27004548  0.15107808  0.16792302       0.006
   0.29215447  0.14581403  0.16265897       0.006
   0.31426345  0.14054999  0.15739493       0.006
   0.33637244  0.13528594  0.15213089       0.006
  -0.01526573  0.04895561  0.08264550       0.006
   0.00684326  0.04369157  0.07738145       0.006
   0.02895224  0.03842752  0.07211741       0.006
   0.05106123  0.03316348  0.06685336       0.006
   0.07317022  0.02789944  0.06158932       0.006
   0.09527920  0.02263539  0.05632528       0.006
   0.05211404  0.08264550  0.11633538       0.006
   0.07422303  0.07738145  0.11107134       0.006
   0.09633201  0.07211741  0.10580729       0.006
   0.11844100  0.06685336  0.10054325       0.006
   0.14054999  0.06158932  0.09527920       0.006
   0.16265897  0.05632528  0.09001516       0.006
   0.18476796  0.05106123  0.08475112       0.006
   0.03948033  0.01105449  0.04474438       0.006
   0.06158932  0.00579045  0.03948033       0.006
   0.01842416  0.06580056  0.09949044       0.006
   0.04053314  0.06053651  0.09422640       0.006
   0.06264213  0.05527247  0.08896235       0.006
   0.08475112  0.05000842  0.08369831       0.006
   0.10686010  0.04474438  0.07843426       0.006
   0.12896909  0.03948033  0.07317022       0.006
   0.15107808  0.03421629  0.06790617       0.006
   0.10791291  0.09422640  0.12791628       0.006
   0.13002190  0.08896235  0.12265224       0.006
   0.15213089  0.08369831  0.11738819       0.006
   0.03421629  0.01631854  0.06685336       0.006
   0.05632528  0.01105449  0.06158932       0.006
   0.07843426  0.00579045  0.05632528       0.006
   0.03526910  0.06580056  0.11633538       0.006
   0.05737808  0.06053651  0.11107134       0.006
   0.07948707  0.05527247  0.10580729       0.006
   0.10159606  0.05000842  0.10054325       0.006
   0.12370505  0.04474438  0.09527920       0.006
   0.14581403  0.03948033  0.09001516       0.006
   0.16792302  0.03421629  0.08475112       0.006
   0.12475785  0.09422640  0.14476122       0.006
   0.14686684  0.08896235  0.13949718       0.006
   0.16897583  0.08369831  0.13423313       0.006
   0.19108481  0.07843426  0.12896909       0.006
   0.21319380  0.07317022  0.12370505       0.006
   0.23530279  0.06790617  0.11844100       0.006
   0.25741177  0.06264213  0.11317696       0.006
   0.21424661  0.12265224  0.17318706       0.006
   0.23635560  0.11738819  0.16792302       0.006
   0.25846458  0.11212415  0.16265897       0.006
   0.28057357  0.10686010  0.15739493       0.006
   0.30268256  0.10159606  0.15213089       0.006
   0.01842416  0.04895561  0.11633538       0.006
   0.04053314  0.04369157  0.11107134       0.006
   0.06264213  0.03842752  0.10580729       0.006
   0.08475112  0.03316348  0.10054325       0.006
   0.10686010  0.02789944  0.09527920       0.006
   0.12896909  0.02263539  0.09001516       0.006
   0.15107808  0.01737135  0.08475112       0.006
   0.10791291  0.07738145  0.14476122       0.006
   0.13002190  0.07211741  0.13949718       0.006
   0.15213089  0.06685336  0.13423313       0.006
   0.07317022  0.01105449  0.07843426       0.006
   0.09527920  0.00579045  0.07317022       0.006
   0.05211404  0.06580056  0.13318033       0.006
   0.07422303  0.06053651  0.12791628       0.006
   0.09633201  0.05527247  0.12265224       0.006
   0.11844100  0.05000842  0.11738819       0.006
   0.14054999  0.04474438  0.11212415       0.006
   0.16265897  0.03948033  0.10686010       0.006
   0.18476796  0.03421629  0.10159606       0.006
   0.06790617  0.01631854  0.10054325       0.006
   0.09001516  0.01105449  0.09527920       0.006
   0.11212415  0.00579045  0.09001516       0.006
   0.06895898  0.06580056  0.15002527       0.006
   0.09106797  0.06053651  0.14476122       0.006
   0.11317696  0.05527247  0.13949718       0.006
   0.13528594  0.05000842  0.13423313       0.006
   0.15739493  0.04474438  0.12896909       0.006
   0.17950392  0.03948033  0.12370505       0.006
   0.20161290  0.03421629  0.11844100       0.006
   0.15844774  0.09422640  0.17845111       0.006
   0.18055673  0.08896235  0.17318706       0.006
   0.20266571  0.08369831  0.16792302       0.006
   0.22477470  0.07843426  0.16265897       0.006
   0.24688369  0.07317022  0.15739493       0.006
   0.26899267  0.06790617  0.15213089       0.006
   0.05211404  0.04895561  0.15002527       0.006
   0.07422303  0.04369157  0.14476122       0.006
   0.09633201  0.03842752  0.13949718       0.006
   0.11844100  0.03316348  0.13423313       0.006
   0.14054999  0.02789944  0.12896909       0.006
   0.16265897  0.02263539  0.12370505       0.006
   0.18476796  0.01737135  0.11844100       0.006
   0.10686010  0.01105449  0.11212415       0.006
   0.12896909  0.00579045  0.10686010       0.006
   0.15107808  0.00052640  0.10159606       0.006
   0.10791291  0.06053651  0.16160617       0.006
   0.13002190  0.05527247  0.15634212       0.006
   0.15213089  0.05000842  0.15107808       0.006
   0.10159606  0.01631854  0.13423313       0.006
   0.12370505  0.01105449  0.12896909       0.006
   0.14581403  0.00579045  0.12370505       0.006
   0.16792302  0.00052640  0.11844100       0.006
   0.12475785  0.06053651  0.17845111       0.006
   0.14686684  0.05527247  0.17318706       0.006
   0.16897583  0.05000842  0.16792302       0.006
   0.19108481  0.04474438  0.16265897       0.006
   0.21319380  0.03948033  0.15739493       0.006
   0.23530279  0.03421629  0.15213089       0.006
   0.15107808 -0.01631854  0.11844100       0.006
   0.10791291  0.04369157  0.17845111       0.006
   0.13002190  0.03842752  0.17318706       0.006
   0.15213089  0.03316348  0.16792302       0.006
   0.14054999  0.01105449  0.14581403       0.006
   0.16265897  0.00579045  0.14054999       0.006
   0.18476796  0.00052640  0.13528594       0.006
   0.13528594  0.01631854  0.16792302       0.006
   0.15739493  0.01105449  0.16265897       0.006
   0.17950392  0.00579045  0.15739493       0.006
   0.20161290  0.00052640  0.15213089       0.006
   0.18476796 -0.01631854  0.15213089       0.006
 
 k-points in reciprocal lattice and weights: Server version 2018.05.22. K-point grid 
   0.00000000  0.75000000  0.00000000       0.001
   0.03225806  0.60483871  0.00000000       0.003
   0.06451613  0.45967742  0.00000000       0.003
   0.09677419  0.31451613  0.00000000       0.003
   0.12903226  0.16935484  0.00000000       0.003
   0.16129032  0.02419355  0.00000000       0.003
   0.19354839  0.87903226  0.00000000       0.003
   0.22580645  0.73387097  0.00000000       0.003
   0.25806452  0.58870968  0.00000000       0.003
   0.29032258  0.44354839  0.00000000       0.003
   0.32258065  0.29838710  0.00000000       0.003
   0.35483871  0.15322581  0.00000000       0.003
   0.38709677  0.00806452  0.00000000       0.003
   0.41935484  0.86290323  0.00000000       0.003
   0.45161290  0.71774194  0.00000000       0.003
   0.48387097  0.57258065  0.00000000       0.003
   0.03225806  0.10483871  0.00000000       0.003
   0.06451613  0.95967742  0.00000000       0.003
   0.09677419  0.81451613  0.00000000       0.003
   0.12903226  0.66935484  0.00000000       0.003
   0.16129032  0.52419355  0.00000000       0.003
   0.19354839  0.37903226  0.00000000       0.003
   0.22580645  0.23387097  0.00000000       0.003
   0.25806452  0.08870968  0.00000000       0.003
   0.29032258  0.94354839  0.00000000       0.003
   0.32258065  0.79838710  0.00000000       0.003
   0.35483871  0.65322581  0.00000000       0.003
   0.38709677  0.50806452  0.00000000       0.003
   0.41935484  0.36290323  0.00000000       0.003
   0.45161290  0.21774194  0.00000000       0.003
   0.48387097  0.07258065  0.00000000       0.003
   0.03225806  0.28225806  0.03225806       0.006
   0.06451613  0.13709677  0.03225806       0.006
   0.09677419  0.99193548  0.03225806       0.006
   0.12903226  0.84677419  0.03225806       0.006
   0.16129032  0.70161290  0.03225806       0.006
   0.19354839  0.55645161  0.03225806       0.006
   0.22580645  0.41129032  0.03225806       0.006
   0.25806452  0.26612903  0.03225806       0.006
   0.29032258  0.12096774  0.03225806       0.006
   0.32258065  0.97580645  0.03225806       0.006
   0.35483871  0.83064516  0.03225806       0.006
   0.38709677  0.68548387  0.03225806       0.006
   0.41935484  0.54032258  0.03225806       0.006
   0.45161290  0.39516129  0.03225806       0.006
   0.48387097  0.25000000  0.03225806       0.006
   0.51612903  0.10483871  0.03225806       0.006
   0.54838710  0.95967742  0.03225806       0.006
   0.58064516  0.81451613  0.03225806       0.006
   0.61290323  0.66935484  0.03225806       0.006
   0.64516129  0.52419355  0.03225806       0.006
   0.67741935  0.37903226  0.03225806       0.006
   0.70967742  0.23387097  0.03225806       0.006
   0.74193548  0.08870968  0.03225806       0.006
   0.77419355  0.94354839  0.03225806       0.006
   0.80645161  0.79838710  0.03225806       0.006
   0.83870968  0.65322581  0.03225806       0.006
   0.87096774  0.50806452  0.03225806       0.006
   0.90322581  0.36290323  0.03225806       0.006
   0.06451613  0.81451613  0.06451613       0.006
   0.09677419  0.66935484  0.06451613       0.006
   0.12903226  0.52419355  0.06451613       0.006
   0.16129032  0.37903226  0.06451613       0.006
   0.19354839  0.23387097  0.06451613       0.006
   0.22580645  0.08870968  0.06451613       0.006
   0.25806452  0.94354839  0.06451613       0.006
   0.29032258  0.79838710  0.06451613       0.006
   0.32258065  0.65322581  0.06451613       0.006
   0.35483871  0.50806452  0.06451613       0.006
   0.38709677  0.36290323  0.06451613       0.006
   0.41935484  0.21774194  0.06451613       0.006
   0.45161290  0.07258065  0.06451613       0.006
   0.09677419  0.16935484  0.06451613       0.006
   0.12903226  0.02419355  0.06451613       0.006
   0.16129032  0.87903226  0.06451613       0.006
   0.19354839  0.73387097  0.06451613       0.006
   0.22580645  0.58870968  0.06451613       0.006
   0.25806452  0.44354839  0.06451613       0.006
   0.29032258  0.29838710  0.06451613       0.006
   0.32258065  0.15322581  0.06451613       0.006
   0.35483871  0.00806452  0.06451613       0.006
   0.38709677  0.86290323  0.06451613       0.006
   0.41935484  0.71774194  0.06451613       0.006
   0.45161290  0.57258065  0.06451613       0.006
   0.09677419  0.34677419  0.09677419       0.006
   0.12903226  0.20161290  0.09677419       0.006
   0.16129032  0.05645161  0.09677419       0.006
   0.19354839  0.91129032  0.09677419       0.006
   0.22580645  0.76612903  0.09677419       0.006
   0.25806452  0.62096774  0.09677419       0.006
   0.29032258  0.47580645  0.09677419       0.006
   0.32258065  0.33064516  0.09677419       0.006
   0.35483871  0.18548387  0.09677419       0.006
   0.38709677  0.04032258  0.09677419       0.006
   0.41935484  0.89516129  0.09677419       0.006
   0.45161290  0.75000000  0.09677419       0.006
   0.48387097  0.60483871  0.09677419       0.006
   0.51612903  0.45967742  0.09677419       0.006
   0.54838710  0.31451613  0.09677419       0.006
   0.58064516  0.16935484  0.09677419       0.006
   0.61290323  0.02419355  0.09677419       0.006
   0.64516129  0.87903226  0.09677419       0.006
   0.67741935  0.73387097  0.09677419       0.006
   0.70967742  0.58870968  0.09677419       0.006
   0.74193548  0.44354839  0.09677419       0.006
   0.77419355  0.29838710  0.09677419       0.006
   0.12903226  0.87903226  0.12903226       0.006
   0.16129032  0.73387097  0.12903226       0.006
   0.19354839  0.58870968  0.12903226       0.006
   0.22580645  0.44354839  0.12903226       0.006
   0.25806452  0.29838710  0.12903226       0.006
   0.29032258  0.15322581  0.12903226       0.006
   0.32258065  0.00806452  0.12903226       0.006
   0.35483871  0.86290323  0.12903226       0.006
   0.38709677  0.71774194  0.12903226       0.006
   0.41935484  0.57258065  0.12903226       0.006
   0.16129032  0.23387097  0.12903226       0.006
   0.19354839  0.08870968  0.12903226       0.006
   0.22580645  0.94354839  0.12903226       0.006
   0.25806452  0.79838710  0.12903226       0.006
   0.29032258  0.65322581  0.12903226       0.006
   0.32258065  0.50806452  0.12903226       0.006
   0.35483871  0.36290323  0.12903226       0.006
   0.38709677  0.21774194  0.12903226       0.006
   0.41935484  0.07258065  0.12903226       0.006
   0.16129032  0.41129032  0.16129032       0.006
   0.19354839  0.26612903  0.16129032       0.006
   0.22580645  0.12096774  0.16129032       0.006
   0.25806452  0.97580645  0.16129032       0.006
   0.29032258  0.83064516  0.16129032       0.006
   0.32258065  0.68548387  0.16129032       0.006
   0.35483871  0.54032258  0.16129032       0.006
   0.38709677  0.39516129  0.16129032       0.006
   0.41935484  0.25000000  0.16129032       0.006
   0.45161290  0.10483871  0.16129032       0.006
   0.48387097  0.95967742  0.16129032       0.006
   0.51612903  0.81451613  0.16129032       0.006
   0.54838710  0.66935484  0.16129032       0.006
   0.58064516  0.52419355  0.16129032       0.006
   0.61290323  0.37903226  0.16129032       0.006
   0.64516129  0.23387097  0.16129032       0.006
   0.19354839  0.94354839  0.19354839       0.006
   0.22580645  0.79838710  0.19354839       0.006
   0.25806452  0.65322581  0.19354839       0.006
   0.29032258  0.50806452  0.19354839       0.006
   0.32258065  0.36290323  0.19354839       0.006
   0.35483871  0.21774194  0.19354839       0.006
   0.38709677  0.07258065  0.19354839       0.006
   0.22580645  0.29838710  0.19354839       0.006
   0.25806452  0.15322581  0.19354839       0.006
   0.29032258  0.00806452  0.19354839       0.006
   0.32258065  0.86290323  0.19354839       0.006
   0.35483871  0.71774194  0.19354839       0.006
   0.38709677  0.57258065  0.19354839       0.006
   0.22580645  0.47580645  0.22580645       0.006
   0.25806452  0.33064516  0.22580645       0.006
   0.29032258  0.18548387  0.22580645       0.006
   0.32258065  0.04032258  0.22580645       0.006
   0.35483871  0.89516129  0.22580645       0.006
   0.38709677  0.75000000  0.22580645       0.006
   0.41935484  0.60483871  0.22580645       0.006
   0.45161290  0.45967742  0.22580645       0.006
   0.48387097  0.31451613  0.22580645       0.006
   0.51612903  0.16935484  0.22580645       0.006
   0.25806452  0.00806452  0.25806452       0.006
   0.29032258  0.86290323  0.25806452       0.006
   0.32258065  0.71774194  0.25806452       0.006
   0.35483871  0.57258065  0.25806452       0.006
   0.29032258  0.36290323  0.25806452       0.006
   0.32258065  0.21774194  0.25806452       0.006
   0.35483871  0.07258065  0.25806452       0.006
   0.29032258  0.54032258  0.29032258       0.006
   0.32258065  0.39516129  0.29032258       0.006
   0.35483871  0.25000000  0.29032258       0.006
   0.38709677  0.10483871  0.29032258       0.006
   0.32258065  0.07258065  0.32258065       0.006
 
 position of ions in fractional coordinates (direct lattice) 
   0.00000000  0.00000000  0.00000000
   0.50000000  0.25000000  0.25000000
   0.00000000  0.50000000  0.50000000
   0.50000000  0.75000000  0.75000000
 
 position of ions in cartesian coordinates  (Angst):
   0.00000000  0.00000000  0.00000000
   0.00000000  1.91500000  1.91500000
  -1.91500000  1.91500000  3.83000000
  -1.91500000  3.83000000  5.74500000
 


--------------------------------------------------------------------------------------------------------


 k-point  1 :   0.0000 0.7500 0.0000  plane waves:     579
 k-point  2 :   0.0323 0.6048 0.0000  plane waves:     582
 k-point  3 :   0.0645 0.4597 0.0000  plane waves:     581
 k-point  4 :   0.0968 0.3145 0.0000  plane waves:     574
 k-point  5 :   0.1290 0.1694 0.0000  plane waves:     570
 k-point  6 :   0.1613 0.0242 0.0000  plane waves:     569
 k-point  7 :   0.1935 0.8790 0.0000  plane waves:     563
 k-point  8 :   0.2258 0.7339 0.0000  plane waves:     563
 k-point  9 :   0.2581 0.5887 0.0000  plane waves:     564
 k-point 10 :   0.2903 0.4435 0.0000  plane waves:     557
 k-point 11 :   0.3226 0.2984 0.0000  plane waves:     557
 k-point 12 :   0.3548 0.1532 0.0000  plane waves:     556
 k-point 13 :   0.3871 0.0081 0.0000  plane waves:     557
 k-point 14 :   0.4194 0.8629 0.0000  plane waves:     558
 k-point 15 :   0.4516 0.7177 0.0000  plane waves:     560
 k-point 16 :   0.4839 0.5726 0.0000  plane waves:     551
 k-point 17 :   0.0323 0.1048 0.0000  plane waves:     568
 k-point 18 :   0.0645 0.9597 0.0000  plane waves:     572
 k-point 19 :   0.0968 0.8145 0.0000  plane waves:     573
 k-point 20 :   0.1290 0.6694 0.0000  plane waves:     567
 k-point 21 :   0.1613 0.5242 0.0000  plane waves:     575
 k-point 22 :   0.1935 0.3790 0.0000  plane waves:     570
 k-point 23 :   0.2258 0.2339 0.0000  plane waves:     566
 k-point 24 :   0.2581 0.0887 0.0000  plane waves:     561
 k-point 25 :   0.2903 0.9435 0.0000  plane waves:     565
 k-point 26 :   0.3226 0.7984 0.0000  plane waves:     562
 k-point 27 :   0.3548 0.6532 0.0000  plane waves:     555
 k-point 28 :   0.3871 0.5081 0.0000  plane waves:     548
 k-point 29 :   0.4194 0.3629 0.0000  plane waves:     553
 k-point 30 :   0.4516 0.2177 0.0000  plane waves:     556
 k-point 31 :   0.4839 0.0726 0.0000  plane waves:     559
 k-point 32 :   0.0323 0.2823 0.0323  plane waves:     579
 k-point 33 :   0.0645 0.1371 0.0323  plane waves:     575
 k-point 34 :   0.0968 0.9919 0.0323  plane waves:     570
 k-point 35 :   0.1290 0.8468 0.0323  plane waves:     567
 k-point 36 :   0.1613 0.7016 0.0323  plane waves:     569
 k-point 37 :   0.1935 0.5565 0.0323  plane waves:     566
 k-point 38 :   0.2258 0.4113 0.0323  plane waves:     566
 k-point 39 :   0.2581 0.2661 0.0323  plane waves:     557
 k-point 40 :   0.2903 0.1210 0.0323  plane waves:     559
 k-point 41 :   0.3226 0.9758 0.0323  plane waves:     557
 k-point 42 :   0.3548 0.8306 0.0323  plane waves:     557
 k-point 43 :   0.3871 0.6855 0.0323  plane waves:     558
 k-point 44 :   0.4194 0.5403 0.0323  plane waves:     554
 k-point 45 :   0.4516 0.3952 0.0323  plane waves:     554
 k-point 46 :   0.4839 0.2500 0.0323  plane waves:     555
 k-point 47 :   0.5161 0.1048 0.0323  plane waves:     561
 k-point 48 :   0.5484 0.9597 0.0323  plane waves:     558
 k-point 49 :   0.5806 0.8145 0.0323  plane waves:     556
 k-point 50 :   0.6129 0.6694 0.0323  plane waves:     553
 k-point 51 :   0.6452 0.5242 0.0323  plane waves:     554
 k-point 52 :   0.6774 0.3790 0.0323  plane waves:     557
 k-point 53 :   0.7097 0.2339 0.0323  plane waves:     560
 k-point 54 :   0.7419 0.0887 0.0323  plane waves:     563
 k-point 55 :   0.7742 0.9435 0.0323  plane waves:     562
 k-point 56 :   0.8065 0.7984 0.0323  plane waves:     570
 k-point 57 :   0.8387 0.6532 0.0323  plane waves:     571
 k-point 58 :   0.8710 0.5081 0.0323  plane waves:     574
 k-point 59 :   0.9032 0.3629 0.0323  plane waves:     575
 k-point 60 :   0.0645 0.8145 0.0645  plane waves:     572
 k-point 61 :   0.0968 0.6694 0.0645  plane waves:     571
 k-point 62 :   0.1290 0.5242 0.0645  plane waves:     569
 k-point 63 :   0.1613 0.3790 0.0645  plane waves:     568
 k-point 64 :   0.1935 0.2339 0.0645  plane waves:     567
 k-point 65 :   0.2258 0.0887 0.0645  plane waves:     564
 k-point 66 :   0.2581 0.9435 0.0645  plane waves:     562
 k-point 67 :   0.2903 0.7984 0.0645  plane waves:     558
 k-point 68 :   0.3226 0.6532 0.0645  plane waves:     555
 k-point 69 :   0.3548 0.5081 0.0645  plane waves:     553
 k-point 70 :   0.3871 0.3629 0.0645  plane waves:     550
 k-point 71 :   0.4194 0.2177 0.0645  plane waves:     555
 k-point 72 :   0.4516 0.0726 0.0645  plane waves:     553
 k-point 73 :   0.0968 0.1694 0.0645  plane waves:     571
 k-point 74 :   0.1290 0.0242 0.0645  plane waves:     564
 k-point 75 :   0.1613 0.8790 0.0645  plane waves:     562
 k-point 76 :   0.1935 0.7339 0.0645  plane waves:     563
 k-point 77 :   0.2258 0.5887 0.0645  plane waves:     564
 k-point 78 :   0.2581 0.4435 0.0645  plane waves:     560
 k-point 79 :   0.2903 0.2984 0.0645  plane waves:     559
 k-point 80 :   0.3226 0.1532 0.0645  plane waves:     555
 k-point 81 :   0.3548 0.0081 0.0645  plane waves:     558
 k-point 82 :   0.3871 0.8629 0.0645  plane waves:     559
 k-point 83 :   0.4194 0.7177 0.0645  plane waves:     559
 k-point 84 :   0.4516 0.5726 0.0645  plane waves:     550
 k-point 85 :   0.0968 0.3468 0.0968  plane waves:     568
 k-point 86 :   0.1290 0.2016 0.0968  plane waves:     566
 k-point 87 :   0.1613 0.0565 0.0968  plane waves:     566
 k-point 88 :   0.1935 0.9113 0.0968  plane waves:     561
 k-point 89 :   0.2258 0.7661 0.0968  plane waves:     561
 k-point 90 :   0.2581 0.6210 0.0968  plane waves:     559
 k-point 91 :   0.2903 0.4758 0.0968  plane waves:     554
 k-point 92 :   0.3226 0.3306 0.0968  plane waves:     557
 k-point 93 :   0.3548 0.1855 0.0968  plane waves:     553
 k-point 94 :   0.3871 0.0403 0.0968  plane waves:     556
 k-point 95 :   0.4194 0.8952 0.0968  plane waves:     560
 k-point 96 :   0.4516 0.7500 0.0968  plane waves:     556
 k-point 97 :   0.4839 0.6048 0.0968  plane waves:     551
 k-point 98 :   0.5161 0.4597 0.0968  plane waves:     554
 k-point 99 :   0.5484 0.3145 0.0968  plane waves:     559
 k-point ** :   0.5806 0.1694 0.0968  plane waves:     558
 k-point ** :   0.6129 0.0242 0.0968  plane waves:     558
 k-point ** :   0.6452 0.8790 0.0968  plane waves:     561
 k-point ** :   0.6774 0.7339 0.0968  plane waves:     564
 k-point ** :   0.7097 0.5887 0.0968  plane waves:     565
 k-point ** :   0.7419 0.4435 0.0968  plane waves:     567
 k-point ** :   0.7742 0.2984 0.0968  plane waves:     567
 k-point ** :   0.1290 0.8790 0.1290  plane waves:     564
 k-point ** :   0.1613 0.7339 0.1290  plane waves:     561
 k-point ** :   0.1935 0.5887 0.1290  plane waves:     568
 k-point ** :   0.2258 0.4435 0.1290  plane waves:     563
 k-point ** :   0.2581 0.2984 0.1290  plane waves:     561
 k-point ** :   0.2903 0.1532 0.1290  plane waves:     558
 k-point ** :   0.3226 0.0081 0.1290  plane waves:     558
 k-point ** :   0.3548 0.8629 0.1290  plane waves:     561
 k-point ** :   0.3871 0.7177 0.1290  plane waves:     552
 k-point ** :   0.4194 0.5726 0.1290  plane waves:     548
 k-point ** :   0.1613 0.2339 0.1290  plane waves:     564
 k-point ** :   0.1935 0.0887 0.1290  plane waves:     563
 k-point ** :   0.2258 0.9435 0.1290  plane waves:     560
 k-point ** :   0.2581 0.7984 0.1290  plane waves:     562
 k-point ** :   0.2903 0.6532 0.1290  plane waves:     560
 k-point ** :   0.3226 0.5081 0.1290  plane waves:     556
 k-point ** :   0.3548 0.3629 0.1290  plane waves:     553
 k-point ** :   0.3871 0.2177 0.1290  plane waves:     551
 k-point ** :   0.4194 0.0726 0.1290  plane waves:     556
 k-point ** :   0.1613 0.4113 0.1613  plane waves:     564
 k-point ** :   0.1935 0.2661 0.1613  plane waves:     566
 k-point ** :   0.2258 0.1210 0.1613  plane waves:     563
 k-point ** :   0.2581 0.9758 0.1613  plane waves:     566
 k-point ** :   0.2903 0.8306 0.1613  plane waves:     559
 k-point ** :   0.3226 0.6855 0.1613  plane waves:     555
 k-point ** :   0.3548 0.5403 0.1613  plane waves:     555
 k-point ** :   0.3871 0.3952 0.1613  plane waves:     547
 k-point ** :   0.4194 0.2500 0.1613  plane waves:     551
 k-point ** :   0.4516 0.1048 0.1613  plane waves:     549
 k-point ** :   0.4839 0.9597 0.1613  plane waves:     554
 k-point ** :   0.5161 0.8145 0.1613  plane waves:     559
 k-point ** :   0.5484 0.6694 0.1613  plane waves:     559
 k-point ** :   0.5806 0.5242 0.1613  plane waves:     560
 k-point ** :   0.6129 0.3790 0.1613  plane waves:     559
 k-point ** :   0.6452 0.2339 0.1613  plane waves:     561
 k-point ** :   0.1935 0.9435 0.1935  plane waves:     562
 k-point ** :   0.2258 0.7984 0.1935  plane waves:     565
 k-point ** :   0.2581 0.6532 0.1935  plane waves:     559
 k-point ** :   0.2903 0.5081 0.1935  plane waves:     556
 k-point ** :   0.3226 0.3629 0.1935  plane waves:     556
 k-point ** :   0.3548 0.2177 0.1935  plane waves:     550
 k-point ** :   0.3871 0.0726 0.1935  plane waves:     550
 k-point ** :   0.2258 0.2984 0.1935  plane waves:     563
 k-point ** :   0.2581 0.1532 0.1935  plane waves:     565
 k-point ** :   0.2903 0.0081 0.1935  plane waves:     561
 k-point ** :   0.3226 0.8629 0.1935  plane waves:     558
 k-point ** :   0.3548 0.7177 0.1935  plane waves:     553
 k-point ** :   0.3871 0.5726 0.1935  plane waves:     549
 k-point ** :   0.2258 0.4758 0.2258  plane waves:     559
 k-point ** :   0.2581 0.3306 0.2258  plane waves:     561
 k-point ** :   0.2903 0.1855 0.2258  plane waves:     559
 k-point ** :   0.3226 0.0403 0.2258  plane waves:     556
 k-point ** :   0.3548 0.8952 0.2258  plane waves:     551
 k-point ** :   0.3871 0.7500 0.2258  plane waves:     552
 k-point ** :   0.4194 0.6048 0.2258  plane waves:     546
 k-point ** :   0.4516 0.4597 0.2258  plane waves:     551
 k-point ** :   0.4839 0.3145 0.2258  plane waves:     554
 k-point ** :   0.5161 0.1694 0.2258  plane waves:     558
 k-point ** :   0.2581 0.0081 0.2581  plane waves:     557
 k-point ** :   0.2903 0.8629 0.2581  plane waves:     557
 k-point ** :   0.3226 0.7177 0.2581  plane waves:     549
 k-point ** :   0.3548 0.5726 0.2581  plane waves:     554
 k-point ** :   0.2903 0.3629 0.2581  plane waves:     556
 k-point ** :   0.3226 0.2177 0.2581  plane waves:     551
 k-point ** :   0.3548 0.0726 0.2581  plane waves:     554
 k-point ** :   0.2903 0.5403 0.2903  plane waves:     551
 k-point ** :   0.3226 0.3952 0.2903  plane waves:     553
 k-point ** :   0.3548 0.2500 0.2903  plane waves:     554
 k-point ** :   0.3871 0.1048 0.2903  plane waves:     552
 k-point ** :   0.3226 0.0726 0.3226  plane waves:     557

 maximum and minimum number of plane-waves per node :       582      546

 maximum number of plane-waves:       582
 maximum index in each direction: 
   IXMAX=    3   IYMAX=   11   IZMAX=    3
   IXMIN=   -4   IYMIN=  -12   IZMIN=   -3


 serial   3D FFT for wavefunctions
 parallel 3D FFT for charge:
    minimum data exchange during FFTs selected (reduces bandwidth)


 total amount of memory used by VASP MPI-rank0   113867. kBytes
=======================================================================

   base      :      30000. kBytes
   nonl-proj :      44287. kBytes
   fftplans  :       2748. kBytes
   grid      :       5462. kBytes
   one-center:         62. kBytes
   wavefun   :      31308. kBytes
 
     INWAV:  cpu time    0.0000: real time    0.0002
 Broyden mixing: mesh for mixing (old mesh)
   NGX =  7   NGY = 23   NGZ =  7
  (NGX  = 28   NGY  = 96   NGZ  = 28)
  gives a total of   1127 points

 initial charge density was supplied:
 charge density of overlapping atoms calculated
 number of electron      26.0000000 magnetization 
 keeping initial charge density in first step


--------------------------------------------------------------------------------------------------------


 Maximum index for augmentation-charges         9865 (set IRDMAX)


--------------------------------------------------------------------------------------------------------


 First call to EWALD:  gamma=   0.463
 Maximum number of real-space cells 4x 1x 4
 Maximum number of reciprocal cells 2x 6x 2

    FEWALD:  cpu time    0.0060: real time    0.0069


--------------------------------------- Iteration      1(   1)  ---------------------------------------


    POTLOK:  cpu time    0.1900: real time    0.1931
    SETDIJ:  cpu time    0.0750: real time    0.0749
     EDDAV:  cpu time   16.8944: real time   16.9650
       DOS:  cpu time    0.0690: real time    0.0695
    --------------------------------------------
      LOOP:  cpu time   17.2284: real time   17.3025

 eigenvalue-minimisations  :  6064
 total energy-change (2. order) : 0.1020641E+03  (-0.7000316E+03)
 number of electron      26.0000000 magnetization 
 augmentation part       26.0000000 magnetization 

 Free energy of the ion-electron system (eV)
  ---------------------------------------------------
  alpha Z        PSCENC =       162.90053522
  Ewald energy   TEWEN  =     -1447.00406289
  -Hartree energ DENC   =      -302.13227994
  -exchange      EXHF   =         0.00000000
  -V(xc)+E(xc)   XCENC  =      -125.06645218
  PAW double counting   =      1411.00560772    -1296.46150778
  entropy T*S    EENTRO =         0.00224678
  eigenvalues    EBANDS =       305.45172918
  atomic energy  EATOM  =      1393.36825910
  Solvation  Ediel_sol  =         0.00000000
  ---------------------------------------------------
  free energy    TOTEN  =       102.06407520 eV

  energy without entropy =      102.06182842  energy(sigma->0) =      102.06332627


--------------------------------------------------------------------------------------------------------




--------------------------------------- Iteration      1(   2)  ---------------------------------------


     EDDAV:  cpu time   16.7874: real time   16.8558
       DOS:  cpu time    0.0880: real time    0.0878
    --------------------------------------------
      LOOP:  cpu time   16.8754: real time   16.9435

 eigenvalue-minimisations  :  6006
 total energy-change (2. order) :-0.1283728E+03  (-0.1250559E+03)
 number of electron      26.0000000 magnetization 
 augmentation part       26.0000000 magnetization 

 Free energy of the ion-electron system (eV)
  ---------------------------------------------------
  alpha Z        PSCENC =       162.90053522
  Ewald energy   TEWEN  =     -1447.00406289
  -Hartree energ DENC   =      -302.13227994
  -exchange      EXHF   =         0.00000000
  -V(xc)+E(xc)   XCENC  =      -125.06645218
  PAW double counting   =      1411.00560772    -1296.46150778
  entropy T*S    EENTRO =        -0.00160449
  eigenvalues    EBANDS =       177.08277539
  atomic energy  EATOM  =      1393.36825910
  Solvation  Ediel_sol  =         0.00000000
  ---------------------------------------------------
  free energy    TOTEN  =       -26.30872986 eV

  energy without entropy =      -26.30712537  energy(sigma->0) =      -26.30819503


--------------------------------------------------------------------------------------------------------




--------------------------------------- Iteration      1(   3)  ---------------------------------------


     EDDAV:  cpu time   25.9900: real time   26.0930
       DOS:  cpu time    0.0960: real time    0.0960
    --------------------------------------------
      LOOP:  cpu time   26.0860: real time   26.1891

 eigenvalue-minimisations  : 10624
 total energy-change (2. order) :-0.1841498E+02  (-0.1766248E+02)
 number of electron      26.0000000 magnetization 
 augmentation part       26.0000000 magnetization 

 Free energy of the ion-electron system (eV)
  ---------------------------------------------------
  alpha Z        PSCENC =       162.90053522
  Ewald energy   TEWEN  =     -1447.00406289
  -Hartree energ DENC   =      -302.13227994
  -exchange      EXHF   =         0.00000000
  -V(xc)+E(xc)   XCENC  =      -125.06645218
  PAW double counting   =      1411.00560772    -1296.46150778
  entropy T*S    EENTRO =        -0.00378725
  eigenvalues    EBANDS =       158.66997644
  atomic energy  EATOM  =      1393.36825910
  Solvation  Ediel_sol  =         0.00000000
  ---------------------------------------------------
  free energy    TOTEN  =       -44.72371157 eV

  energy without entropy =      -44.71992432  energy(sigma->0) =      -44.72244915


--------------------------------------------------------------------------------------------------------




--------------------------------------- Iteration      1(   4)  ---------------------------------------


     EDDAV:  cpu time   21.9577: real time   22.0494
       DOS:  cpu time    0.0980: real time    0.0980
    --------------------------------------------
      LOOP:  cpu time   22.0556: real time   22.1474

 eigenvalue-minimisations  :  8662
 total energy-change (2. order) :-0.1099635E+01  (-0.1059564E+01)
 number of electron      26.0000000 magnetization 
 augmentation part       26.0000000 magnetization 

 Free energy of the ion-electron system (eV)
  ---------------------------------------------------
  alpha Z        PSCENC =       162.90053522
  Ewald energy   TEWEN  =     -1447.00406289
  -Hartree energ DENC   =      -302.13227994
  -exchange      EXHF   =         0.00000000
  -V(xc)+E(xc)   XCENC  =      -125.06645218
  PAW double counting   =      1411.00560772    -1296.46150778
  entropy T*S    EENTRO =        -0.00485016
  eigenvalues    EBANDS =       157.57140461
  atomic energy  EATOM  =      1393.36825910
  Solvation  Ediel_sol  =         0.00000000
  ---------------------------------------------------
  free energy    TOTEN  =       -45.82334632 eV

  energy without entropy =      -45.81849616  energy(sigma->0) =      -45.82172960


--------------------------------------------------------------------------------------------------------




--------------------------------------- Iteration      1(   5)  ---------------------------------------


     EDDAV:  cpu time   24.5183: real time   24.6095
       DOS:  cpu time    0.1000: real time    0.1005
    CHARGE:  cpu time    2.4376: real time    2.4465
    MIXING:  cpu time    0.0070: real time    0.0069
    --------------------------------------------
      LOOP:  cpu time   27.0629: real time   27.1634

 eigenvalue-minimisations  :  9882
 total energy-change (2. order) :-0.7300401E-01  (-0.7018761E-01)
 number of electron      26.0000010 magnetization 
 augmentation part        6.1449945 magnetization 

 Broyden mixing:
  rms(total) = 0.43603E+01    rms(broyden)= 0.43602E+01
  rms(prec ) = 0.54726E+01
  weight for this iteration     100.00

 Free energy of the ion-electron system (eV)
  ---------------------------------------------------
  alpha Z        PSCENC =       162.90053522
  Ewald energy   TEWEN  =     -1447.00406289
  -Hartree energ DENC   =      -302.13227994
  -exchange      EXHF   =         0.00000000
  -V(xc)+E(xc)   XCENC  =      -125.06645218
  PAW double counting   =      1411.00560772    -1296.46150778
  entropy T*S    EENTRO =        -0.00462239
  eigenvalues    EBANDS =       157.49817283
  atomic energy  EATOM  =      1393.36825910
  Solvation  Ediel_sol  =         0.00000000
  ---------------------------------------------------
  free energy    TOTEN  =       -45.89635032 eV

  energy without entropy =      -45.89172793  energy(sigma->0) =      -45.89480953


--------------------------------------------------------------------------------------------------------




--------------------------------------- Iteration      1(   6)  ---------------------------------------


    POTLOK:  cpu time    0.1850: real time    0.1859
    SETDIJ:  cpu time    0.0750: real time    0.0755
     EDDAV:  cpu time   24.0104: real time   24.1040
       DOS:  cpu time    0.0820: real time    0.0826
    CHARGE:  cpu time    2.4346: real time    2.4448
    MIXING:  cpu time    0.0080: real time    0.0074
    --------------------------------------------
      LOOP:  cpu time   26.7949: real time   26.9001

 eigenvalue-minimisations  :  9615
 total energy-change (2. order) :-0.4547223E+02  (-0.6642811E+02)
 number of electron      26.0000014 magnetization 
 augmentation part       10.8047859 magnetization 

 Broyden mixing:
  rms(total) = 0.67293E+01    rms(broyden)= 0.67290E+01
  rms(prec ) = 0.96136E+01
  weight for this iteration     100.00

 eigenvalues of (default mixing * dielectric matrix)
  average eigenvalue GAMMA=   0.2965
  0.2965

 Free energy of the ion-electron system (eV)
  ---------------------------------------------------
  alpha Z        PSCENC =       162.90053522
  Ewald energy   TEWEN  =     -1447.00406289
  -Hartree energ DENC   =      -221.98883540
  -exchange      EXHF   =         0.00000000
  -V(xc)+E(xc)   XCENC  =      -127.35151939
  PAW double counting   =      1978.11719226    -1846.38205269
  entropy T*S    EENTRO =        -0.00351437
  eigenvalues    EBANDS =        16.97541498
  atomic energy  EATOM  =      1393.36825910
  Solvation  Ediel_sol  =         0.00000000
  ---------------------------------------------------
  free energy    TOTEN  =       -91.36858318 eV

  energy without entropy =      -91.36506881  energy(sigma->0) =      -91.36741173


--------------------------------------------------------------------------------------------------------




--------------------------------------- Iteration      1(   7)  ---------------------------------------


    POTLOK:  cpu time    0.1820: real time    0.1833
    SETDIJ:  cpu time    0.0750: real time    0.0748
     EDDAV:  cpu time   23.1455: real time   23.2359
       DOS:  cpu time    0.1040: real time    0.1048
    CHARGE:  cpu time    2.4556: real time    2.4666
    MIXING:  cpu time    0.0080: real time    0.0075
    --------------------------------------------
      LOOP:  cpu time   25.9701: real time   26.0730

 eigenvalue-minimisations  :  8973
 total energy-change (2. order) : 0.4114026E+02  (-0.1275989E+02)
 number of electron      26.0000011 magnetization 
 augmentation part        9.2423986 magnetization 

 Broyden mixing:
  rms(total) = 0.29213E+01    rms(broyden)= 0.29212E+01
  rms(prec ) = 0.47072E+01
  weight for this iteration     100.00

 eigenvalues of (default mixing * dielectric matrix)
  average eigenvalue GAMMA=   0.5338
  0.6100  0.4575

 Free energy of the ion-electron system (eV)
  ---------------------------------------------------
  alpha Z        PSCENC =       162.90053522
  Ewald energy   TEWEN  =     -1447.00406289
  -Hartree energ DENC   =      -255.87925368
  -exchange      EXHF   =         0.00000000
  -V(xc)+E(xc)   XCENC  =      -125.92673502
  PAW double counting   =      2161.55268101    -2043.01317750
  entropy T*S    EENTRO =        -0.00239857
  eigenvalues    EBANDS =       103.77582589
  atomic energy  EATOM  =      1393.36825910
  Solvation  Ediel_sol  =         0.00000000
  ---------------------------------------------------
  free energy    TOTEN  =       -50.22832645 eV

  energy without entropy =      -50.22592788  energy(sigma->0) =      -50.22752693


--------------------------------------------------------------------------------------------------------




--------------------------------------- Iteration      1(   8)  ---------------------------------------


    POTLOK:  cpu time    0.1860: real time    0.1871
    SETDIJ:  cpu time    0.0760: real time    0.0761
     EDDAV:  cpu time   28.3037: real time   28.4130
       DOS:  cpu time    0.1060: real time    0.1067
    CHARGE:  cpu time    2.4066: real time    2.4153
    MIXING:  cpu time    0.0080: real time    0.0079
    --------------------------------------------
      LOOP:  cpu time   31.0863: real time   31.2060

 eigenvalue-minimisations  : 11148
 total energy-change (2. order) : 0.2401877E+00  (-0.1523202E+02)
 number of electron      26.0000008 magnetization 
 augmentation part        8.7284990 magnetization 

 Broyden mixing:
  rms(total) = 0.42245E+01    rms(broyden)= 0.42241E+01
  rms(prec ) = 0.80234E+01
  weight for this iteration     100.00

 eigenvalues of (default mixing * dielectric matrix)
  average eigenvalue GAMMA=   0.6317
  1.3977  0.2487  0.2487

 Free energy of the ion-electron system (eV)
  ---------------------------------------------------
  alpha Z        PSCENC =       162.90053522
  Ewald energy   TEWEN  =     -1447.00406289
  -Hartree energ DENC   =      -281.53160055
  -exchange      EXHF   =         0.00000000
  -V(xc)+E(xc)   XCENC  =      -124.63656528
  PAW double counting   =      2354.73696766    -2243.48026895
  entropy T*S    EENTRO =        -0.01076850
  eigenvalues    EBANDS =       135.66936542
  atomic energy  EATOM  =      1393.36825910
  Solvation  Ediel_sol  =         0.00000000
  ---------------------------------------------------
  free energy    TOTEN  =       -49.98813878 eV

  energy without entropy =      -49.97737027  energy(sigma->0) =      -49.98454928


--------------------------------------------------------------------------------------------------------




--------------------------------------- Iteration      1(   9)  ---------------------------------------


    POTLOK:  cpu time    0.1800: real time    0.1816
    SETDIJ:  cpu time    0.0750: real time    0.0748
     EDDAV:  cpu time   28.2287: real time   28.3336
       DOS:  cpu time    0.1000: real time    0.1017
    CHARGE:  cpu time    2.4396: real time    2.4476
    MIXING:  cpu time    0.0080: real time    0.0080
    --------------------------------------------
      LOOP:  cpu time   31.0313: real time   31.1473

 eigenvalue-minimisations  : 11570
 total energy-change (2. order) : 0.7177708E+01  (-0.1212270E+02)
 number of electron      26.0000011 magnetization 
 augmentation part        6.8158971 magnetization 

 Broyden mixing:
  rms(total) = 0.17635E+01    rms(broyden)= 0.17628E+01
  rms(prec ) = 0.33886E+01
  weight for this iteration     100.00

 eigenvalues of (default mixing * dielectric matrix)
  average eigenvalue GAMMA=   0.7309
  1.9874  0.3866  0.3866  0.1631

 Free energy of the ion-electron system (eV)
  ---------------------------------------------------
  alpha Z        PSCENC =       162.90053522
  Ewald energy   TEWEN  =     -1447.00406289
  -Hartree energ DENC   =      -280.36049916
  -exchange      EXHF   =         0.00000000
  -V(xc)+E(xc)   XCENC  =      -124.48154786
  PAW double counting   =      2659.82077092    -2551.98899466
  entropy T*S    EENTRO =        -0.00264343
  eigenvalues    EBANDS =       144.93775182
  atomic energy  EATOM  =      1393.36825910
  Solvation  Ediel_sol  =         0.00000000
  ---------------------------------------------------
  free energy    TOTEN  =       -42.81043096 eV

  energy without entropy =      -42.80778752  energy(sigma->0) =      -42.80954981


--------------------------------------------------------------------------------------------------------




--------------------------------------- Iteration      1(  10)  ---------------------------------------


    POTLOK:  cpu time    0.1800: real time    0.1815
    SETDIJ:  cpu time    0.0750: real time    0.0747
     EDDAV:  cpu time   25.2812: real time   25.3739
       DOS:  cpu time    0.1050: real time    0.1045
    CHARGE:  cpu time    2.4376: real time    2.4469
    MIXING:  cpu time    0.0080: real time    0.0084
    --------------------------------------------
      LOOP:  cpu time   28.0867: real time   28.1899

 eigenvalue-minimisations  : 10136
 total energy-change (2. order) : 0.5783450E-02  (-0.6265756E+01)
 number of electron      26.0000010 magnetization 
 augmentation part        8.8092928 magnetization 

 Broyden mixing:
  rms(total) = 0.15862E+01    rms(broyden)= 0.15859E+01
  rms(prec ) = 0.27682E+01
  weight for this iteration     100.00

 eigenvalues of (default mixing * dielectric matrix)
  average eigenvalue GAMMA=   0.7244
  2.0569  0.7312  0.3346  0.3346  0.1647

 Free energy of the ion-electron system (eV)
  ---------------------------------------------------
  alpha Z        PSCENC =       162.90053522
  Ewald energy   TEWEN  =     -1447.00406289
  -Hartree energ DENC   =      -263.59980410
  -exchange      EXHF   =         0.00000000
  -V(xc)+E(xc)   XCENC  =      -124.88949054
  PAW double counting   =      3060.58330705    -2950.60735321
  entropy T*S    EENTRO =         0.00380391
  eigenvalues    EBANDS =       126.44015796
  atomic energy  EATOM  =      1393.36825910
  Solvation  Ediel_sol  =         0.00000000
  ---------------------------------------------------
  free energy    TOTEN  =       -42.80464751 eV

  energy without entropy =      -42.80845141  energy(sigma->0) =      -42.80591548


--------------------------------------------------------------------------------------------------------




--------------------------------------- Iteration      1(  11)  ---------------------------------------


    POTLOK:  cpu time    0.1810: real time    0.2069
    SETDIJ:  cpu time    0.0750: real time    0.0750
     EDDAV:  cpu time   25.9321: real time   26.0300
       DOS:  cpu time    0.1060: real time    0.1063
    CHARGE:  cpu time    2.4216: real time    2.4307
    MIXING:  cpu time    0.0090: real time    0.0088
    --------------------------------------------
      LOOP:  cpu time   28.7246: real time   28.8577

 eigenvalue-minimisations  : 10459
 total energy-change (2. order) : 0.1363070E+01  (-0.3944138E+00)
 number of electron      26.0000009 magnetization 
 augmentation part        8.7684908 magnetization 

 Broyden mixing:
  rms(total) = 0.12607E+01    rms(broyden)= 0.12606E+01
  rms(prec ) = 0.23317E+01
  weight for this iteration     100.00

 eigenvalues of (default mixing * dielectric matrix)
  average eigenvalue GAMMA=   0.6176
  2.0565  0.7522  0.3316  0.3316  0.1662  0.0674

 Free energy of the ion-electron system (eV)
  ---------------------------------------------------
  alpha Z        PSCENC =       162.90053522
  Ewald energy   TEWEN  =     -1447.00406289
  -Hartree energ DENC   =      -265.65230451
  -exchange      EXHF   =         0.00000000
  -V(xc)+E(xc)   XCENC  =      -124.74087828
  PAW double counting   =      3160.15846444    -3050.48979494
  entropy T*S    EENTRO =         0.00048721
  eigenvalues    EBANDS =       130.01771742
  atomic energy  EATOM  =      1393.36825910
  Solvation  Ediel_sol  =         0.00000000
  ---------------------------------------------------
  free energy    TOTEN  =       -41.44157724 eV

  energy without entropy =      -41.44206445  energy(sigma->0) =      -41.44173965


--------------------------------------------------------------------------------------------------------




--------------------------------------- Iteration      1(  12)  ---------------------------------------


    POTLOK:  cpu time    0.1800: real time    0.1818
    SETDIJ:  cpu time    0.0750: real time    0.0750
     EDDAV:  cpu time   21.5017: real time   21.5836
       DOS:  cpu time    0.1060: real time    0.1065
    CHARGE:  cpu time    2.4006: real time    2.4092
    MIXING:  cpu time    0.0080: real time    0.0086
    --------------------------------------------
      LOOP:  cpu time   24.2713: real time   24.3647

 eigenvalue-minimisations  :  8299
 total energy-change (2. order) : 0.1515175E+00  (-0.1400433E-01)
 number of electron      26.0000009 magnetization 
 augmentation part        8.7491241 magnetization 

 Broyden mixing:
  rms(total) = 0.12138E+01    rms(broyden)= 0.12138E+01
  rms(prec ) = 0.22364E+01
  weight for this iteration     100.00

 eigenvalues of (default mixing * dielectric matrix)
  average eigenvalue GAMMA=   0.5617
  2.0567  0.7541  0.3283  0.3283  0.1805  0.1528  0.1308

 Free energy of the ion-electron system (eV)
  ---------------------------------------------------
  alpha Z        PSCENC =       162.90053522
  Ewald energy   TEWEN  =     -1447.00406289
  -Hartree energ DENC   =      -266.00782702
  -exchange      EXHF   =         0.00000000
  -V(xc)+E(xc)   XCENC  =      -124.72645888
  PAW double counting   =      3163.71661707    -3053.95663054
  entropy T*S    EENTRO =         0.00059919
  eigenvalues    EBANDS =       130.41890896
  atomic energy  EATOM  =      1393.36825910
  Solvation  Ediel_sol  =         0.00000000
  ---------------------------------------------------
  free energy    TOTEN  =       -41.29005979 eV

  energy without entropy =      -41.29065897  energy(sigma->0) =      -41.29025952


--------------------------------------------------------------------------------------------------------




--------------------------------------- Iteration      1(  13)  ---------------------------------------


    POTLOK:  cpu time    0.1690: real time    0.1700
    SETDIJ:  cpu time    0.0700: real time    0.0699
     EDDAV:  cpu time   24.6043: real time   24.6950
       DOS:  cpu time    0.1030: real time    0.1037
    CHARGE:  cpu time    2.4766: real time    2.4859
    MIXING:  cpu time    0.0100: real time    0.0098
    --------------------------------------------
      LOOP:  cpu time   27.4328: real time   27.5343

 eigenvalue-minimisations  :  9910
 total energy-change (2. order) : 0.2315371E-01  (-0.7938834E-03)
 number of electron      26.0000009 magnetization 
 augmentation part        8.7478970 magnetization 

 Broyden mixing:
  rms(total) = 0.12063E+01    rms(broyden)= 0.12063E+01
  rms(prec ) = 0.22212E+01
  weight for this iteration     100.00

 eigenvalues of (default mixing * dielectric matrix)
  average eigenvalue GAMMA=   0.6990
  2.0510  1.1647  0.7134  0.1630  0.3629  0.3629  0.3871  0.3871

 Free energy of the ion-electron system (eV)
  ---------------------------------------------------
  alpha Z        PSCENC =       162.90053522
  Ewald energy   TEWEN  =     -1447.00406289
  -Hartree energ DENC   =      -266.06326435
  -exchange      EXHF   =         0.00000000
  -V(xc)+E(xc)   XCENC  =      -124.72410376
  PAW double counting   =      3163.64512301    -3053.86963224
  entropy T*S    EENTRO =         0.00060545
  eigenvalues    EBANDS =       130.47963438
  atomic energy  EATOM  =      1393.36825910
  Solvation  Ediel_sol  =         0.00000000
  ---------------------------------------------------
  free energy    TOTEN  =       -41.26690608 eV

  energy without entropy =      -41.26751153  energy(sigma->0) =      -41.26710790


--------------------------------------------------------------------------------------------------------




--------------------------------------- Iteration      1(  14)  ---------------------------------------


    POTLOK:  cpu time    0.1810: real time    0.1821
    SETDIJ:  cpu time    0.0750: real time    0.0750
     EDDAV:  cpu time   24.6623: real time   24.7563
       DOS:  cpu time    0.1050: real time    0.1056
    CHARGE:  cpu time    2.4696: real time    2.4790
    MIXING:  cpu time    0.0100: real time    0.0102
    --------------------------------------------
      LOOP:  cpu time   27.5028: real time   27.6082

 eigenvalue-minimisations  : 10061
 total energy-change (2. order) :-0.5031086E+00  (-0.1689831E-01)
 number of electron      26.0000010 magnetization 
 augmentation part        8.7990848 magnetization 

 Broyden mixing:
  rms(total) = 0.13464E+01    rms(broyden)= 0.13464E+01
  rms(prec ) = 0.24846E+01
  weight for this iteration     100.00

 eigenvalues of (default mixing * dielectric matrix)
  average eigenvalue GAMMA=   0.8218
  2.0233  1.4114  1.4114  0.6894  0.1629  0.3499  0.3499  0.4989  0.4989

 Free energy of the ion-electron system (eV)
  ---------------------------------------------------
  alpha Z        PSCENC =       162.90053522
  Ewald energy   TEWEN  =     -1447.00406289
  -Hartree energ DENC   =      -264.81734504
  -exchange      EXHF   =         0.00000000
  -V(xc)+E(xc)   XCENC  =      -124.76350630
  PAW double counting   =      3159.19583640    -3049.57062400
  entropy T*S    EENTRO =         0.00056651
  eigenvalues    EBANDS =       128.92032634
[...]
     16       8.9133     -0.00000
     17       9.3403     -0.00000

 k-point   165 :       0.2581    0.0081    0.2581
  band No.  band energies     occupation 
      1       3.0516      2.00000
      2       3.5289      2.00000
      3       3.9496      2.00000
      4       4.5454      2.00000
      5       4.7831      2.00000
      6       5.1224      2.00000
      7       5.3815      2.00000
      8       5.6668      2.00000
      9       5.8933      2.00000
     10       6.2811      2.00000
     11       6.3816      2.00000
     12       6.9507      2.00001
     13       7.7087      0.48511
     14       7.9854     -0.03661
     15       8.2255     -0.00031
     16       8.8748     -0.00000
     17       9.3039     -0.00000

 k-point   166 :       0.2903    0.8629    0.2581
  band No.  band energies     occupation 
      1       3.1182      2.00000
      2       3.6303      2.00000
      3       4.0864      2.00000
      4       4.6537      2.00000
      5       4.8517      2.00000
      6       5.1397      2.00000
      7       5.1742      2.00000
      8       5.5878      2.00000
      9       5.9115      2.00000
     10       6.2055      2.00000
     11       6.4903      2.00000
     12       7.0337      2.00014
     13       7.7317      0.33286
     14       8.0202     -0.02315
     15       8.3627     -0.00000
     16       8.9520     -0.00000
     17       9.5131     -0.00000

 k-point   167 :       0.3226    0.7177    0.2581
  band No.  band energies     occupation 
      1       3.1520      2.00000
      2       3.7086      2.00000
      3       4.1772      2.00000
      4       4.6173      2.00000
      5       4.8557      2.00000
      6       5.0782      2.00000
      7       5.1809      2.00000
      8       5.5950      2.00000
      9       5.9960      2.00000
     10       6.2619      2.00000
     11       6.5997      2.00000
     12       7.0200      2.00009
     13       7.7187      0.41620
     14       7.9829     -0.03773
     15       8.4652     -0.00000
     16       8.8722     -0.00000
     17       9.6305     -0.00000

 k-point   168 :       0.3548    0.5726    0.2581
  band No.  band energies     occupation 
      1       3.1660      2.00000
      2       3.7455      2.00000
      3       4.2193      2.00000
      4       4.5794      2.00000
      5       4.7193      2.00000
      6       5.1896      2.00000
      7       5.2121      2.00000
      8       5.5907      2.00000
      9       6.1357      2.00000
     10       6.3404      2.00000
     11       6.6974      2.00000
     12       6.8628      2.00000
     13       7.7101      0.47569
     14       7.9535     -0.05116
     15       8.5044     -0.00000
     16       8.7644     -0.00000
     17       9.6765     -0.00000

 k-point   169 :       0.2903    0.3629    0.2581
  band No.  band energies     occupation 
      1       3.1037      2.00000
      2       3.6164      2.00000
      3       4.0709      2.00000
      4       4.5793      2.00000
      5       4.8651      2.00000
      6       5.0560      2.00000
      7       5.4591      2.00000
      8       5.6616      2.00000
      9       5.8752      2.00000
     10       6.3059      2.00000
     11       6.4203      2.00000
     12       7.0504      2.00022
     13       7.6720      0.76843
     14       7.9371     -0.05845
     15       8.2992     -0.00004
     16       8.8029     -0.00000
     17       9.3920     -0.00000

 k-point   170 :       0.3226    0.2177    0.2581
  band No.  band energies     occupation 
      1       3.1369      2.00000
      2       3.6821      2.00000
      3       4.1583      2.00000
      4       4.6198      2.00000
      5       4.8162      2.00000
      6       5.1314      2.00000
      7       5.5032      2.00000
      8       5.6226      2.00000
      9       5.7713      2.00000
     10       6.2385      2.00000
     11       6.4594      2.00000
     12       7.2223      2.01101
     13       7.6576      0.88822
     14       7.9541     -0.05088
     15       8.4025     -0.00000
     16       8.8268     -0.00000
     17       9.5828     -0.00000

 k-point   171 :       0.3548    0.0726    0.2581
  band No.  band energies     occupation 
      1       3.1518      2.00000
      2       3.7385      2.00000
      3       4.1953      2.00000
      4       4.6697      2.00000
      5       4.8061      2.00000
      6       5.1527      2.00000
      7       5.3904      2.00000
      8       5.6089      2.00000
      9       5.7272      2.00000
     10       6.2015      2.00000
     11       6.4735      2.00000
     12       7.3673      2.06460
     13       7.6653      0.82349
     14       7.9691     -0.04395
     15       8.4776     -0.00000
     16       8.8970     -0.00000
     17       9.7809     -0.00000

 k-point   172 :       0.2903    0.5403    0.2903
  band No.  band energies     occupation 
      1       3.2286      2.00000
      2       3.7791      2.00000
      3       4.1540      2.00000
      4       4.7603      2.00000
      5       4.8965      2.00000
      6       4.9815      2.00000
      7       5.2789      2.00000
      8       5.5765      2.00000
      9       5.9283      2.00000
     10       6.2569      2.00000
     11       6.4694      2.00000
     12       7.0098      2.00007
     13       7.7375      0.29829
     14       8.0010     -0.03017
     15       8.3526     -0.00001
     16       8.9538     -0.00000
     17       9.4345     -0.00000

 k-point   173 :       0.3226    0.3952    0.2903
  band No.  band energies     occupation 
      1       3.3164      2.00000
      2       3.8765      2.00000
      3       4.1538      2.00000
      4       4.7359      2.00000
      5       4.8737      2.00000
      6       5.0706      2.00000
      7       5.3204      2.00000
      8       5.5506      2.00000
      9       5.9401      2.00000
     10       6.3015      2.00000
     11       6.4894      2.00000
     12       6.9560      2.00001
     13       7.7397      0.28557
     14       7.9959     -0.03222
     15       8.3723     -0.00000
     16       8.9457     -0.00000
     17       9.4389     -0.00000

 k-point   174 :       0.3548    0.2500    0.2903
  band No.  band energies     occupation 
      1       3.3512      2.00000
      2       3.9501      2.00000
      3       4.1360      2.00000
      4       4.7685      2.00000
      5       4.8412      2.00000
      6       5.0927      2.00000
      7       5.2502      2.00000
      8       5.5371      2.00000
      9       5.9281      2.00000
     10       6.2675      2.00000
     11       6.5451      2.00000
     12       6.9712      2.00002
     13       7.7585      0.18712
     14       8.0018     -0.02986
     15       8.3947     -0.00000
     16       8.9810     -0.00000
     17       9.5104     -0.00000

 k-point   175 :       0.3871    0.1048    0.2903
  band No.  band energies     occupation 
      1       3.3181      2.00000
      2       3.9085      2.00000
      3       4.1742      2.00000
      4       4.7921      2.00000
      5       4.8788      2.00000
      6       5.0126      2.00000
      7       5.1934      2.00000
      8       5.5422      2.00000
      9       5.9360      2.00000
     10       6.2162      2.00000
     11       6.5456      2.00000
     12       7.0081      2.00007
     13       7.7674      0.14654
     14       8.0105     -0.02656
     15       8.3903     -0.00000
     16       9.0161     -0.00000
     17       9.5212     -0.00000

 k-point   176 :       0.3226    0.0726    0.3226
  band No.  band energies     occupation 
      1       3.4494      2.00000
      2       4.0064      2.00000
      3       4.0758      2.00000
      4       4.8550      2.00000
      5       4.9496      2.00000
      6       4.9894      2.00000
      7       5.2089      2.00000
      8       5.5088      2.00000
      9       6.0325      2.00000
     10       6.1404      2.00000
     11       6.6317      2.00000
     12       6.8514      2.00000
     13       7.7857      0.07543
     14       8.0239     -0.02194
     15       8.3496     -0.00001
     16       9.0979     -0.00000
     17       9.3722     -0.00000


--------------------------------------------------------------------------------------------------------


 soft charge-density along one line, spin component           1
         0         1         2         3         4         5         6         7         8         9
 total charge-density along one line
 
 pseudopotential strength for first ion, spin component:           1
 -1.542   0.019  -0.006  -0.019   0.000  -2.147   0.018  -0.006
  0.019  -1.542  -0.003   0.019   0.005   0.018  -2.147  -0.003
 -0.006  -0.003  -1.534   0.003  -0.000  -0.006  -0.003  -2.138
 -0.019   0.019   0.003  -1.542   0.005  -0.018   0.018   0.003
  0.000   0.005  -0.000   0.005  -1.534   0.000   0.005  -0.000
 -2.147   0.018  -0.006  -0.018   0.000  -2.693   0.018  -0.006
  0.018  -2.147  -0.003   0.018   0.005   0.018  -2.693  -0.003
 -0.006  -0.003  -2.138   0.003  -0.000  -0.006  -0.003  -2.685
 -0.018   0.018   0.003  -2.147   0.005  -0.018   0.018   0.003
  0.000   0.005  -0.000   0.005  -2.138   0.000   0.005  -0.000
 -0.001   0.001   0.000  -0.001   0.000  -0.001   0.001   0.000
 -0.002   0.002   0.000  -0.002   0.000  -0.002   0.002   0.000
  0.002  -0.002   0.001  -0.000   0.002   0.002  -0.002   0.001
 -0.000  -0.002  -0.002   0.002  -0.000  -0.000  -0.002  -0.002
 -0.002  -0.000  -0.001  -0.002   0.002  -0.002  -0.000  -0.001
  0.002  -0.002   0.001  -0.000   0.002   0.002  -0.002   0.001
 -0.000  -0.002  -0.002   0.002  -0.000  -0.000  -0.002  -0.002
 -0.002  -0.000  -0.001  -0.002   0.002  -0.002  -0.000  -0.001
 total augmentation occupancy for first ion, spin component:           1
  1.658   0.081  -0.160  -0.081   0.000  -0.413   0.011   0.125  -0.011  -0.000   0.047  -0.012  -0.045  -0.013   0.045   0.006
  0.081   1.658  -0.080   0.081   0.138   0.011  -0.413   0.062   0.011  -0.108  -0.047   0.012   0.045   0.045  -0.013  -0.006
 -0.160  -0.080   2.274   0.080  -0.000   0.126   0.063  -0.787  -0.063   0.000   0.000  -0.000  -0.017   0.034   0.017   0.003
 -0.081   0.081   0.080   1.658   0.138  -0.011   0.011  -0.062  -0.413  -0.108   0.047  -0.012  -0.013  -0.045   0.045   0.000
  0.000   0.138  -0.000   0.138   2.274  -0.000  -0.109   0.000  -0.109  -0.787  -0.000   0.000  -0.030   0.000  -0.030   0.006
 -0.413   0.011   0.126  -0.011  -0.000   0.724  -0.063  -0.054   0.063   0.000  -0.103   0.011   0.047   0.007  -0.047  -0.005
  0.011  -0.413   0.063   0.011  -0.109  -0.063   0.724  -0.027  -0.063   0.046   0.103  -0.011  -0.047  -0.047   0.007   0.005
  0.125   0.062  -0.787  -0.062   0.000  -0.054  -0.027   0.862   0.027  -0.000  -0.000   0.000   0.017  -0.033  -0.017  -0.002
 -0.011   0.011  -0.063  -0.413  -0.109   0.063  -0.063   0.027   0.724   0.046  -0.103   0.011   0.007   0.047  -0.047  -0.001
 -0.000  -0.108   0.000  -0.108  -0.787   0.000   0.046  -0.000   0.046   0.862   0.000   0.000   0.029  -0.000   0.029  -0.004
  0.047  -0.047   0.000   0.047   0.000  -0.103   0.103  -0.000  -0.103   0.000   1.904  -0.188  -0.029  -0.029   0.029   0.004
 -0.012   0.012  -0.000  -0.012   0.000   0.011  -0.011   0.000   0.011   0.000  -0.188   0.024   0.007   0.007  -0.007  -0.001
 -0.045   0.045  -0.017  -0.013  -0.030   0.047  -0.047   0.017   0.007   0.029  -0.029   0.007   0.242   0.012  -0.012  -0.021
 -0.013   0.045   0.034  -0.045   0.000   0.007  -0.047  -0.033   0.047  -0.000  -0.029   0.007   0.012   0.242  -0.012  -0.000
  0.045  -0.013   0.017   0.045  -0.030  -0.047   0.007  -0.017  -0.047   0.029   0.029  -0.007  -0.012  -0.012   0.242   0.000
  0.006  -0.006   0.003   0.000   0.006  -0.005   0.005  -0.002  -0.001  -0.004   0.004  -0.001  -0.021  -0.000   0.000   0.002
  0.000  -0.006  -0.007   0.006  -0.000  -0.001   0.005   0.005  -0.005   0.000   0.004  -0.001  -0.000  -0.021   0.000  -0.000
 -0.006   0.000  -0.003  -0.006   0.006   0.005  -0.001   0.002   0.005  -0.004  -0.004   0.001   0.000   0.000  -0.021   0.000


------------------------ aborting loop because EDIFF is reached ----------------------------------------



 ----------------------------------------------------------------------------- 
|                                                                             |
|  ADVICE TO THIS USER RUNNING 'VASP/VAMP'   (HEAR YOUR MASTER'S VOICE ...):  |
|                                                                             |
|      Your highest band is occupied at some k-points! Unless you are         |
|      performing a calculation for an insulator or semiconductor, without    |
|      unoccupied bands, you have included TOO FEW BANDS!! Please increase    |
|      the parameter NBANDS in file INCAR to ensure that the highest band     |
|      is unoccupied at all k-points. It is always recommended to             |
|      include a few unoccupied bands to accelerate the convergence of        |
|      molecular dynamics runs (even for insulators or semiconductors).       |
|      Because the presence of unoccupied bands improves wavefunction         |
|      prediction, and helps to suppress 'band-crossings.'                    |
|      Following all k-points will be listed (with the Fermi weights of       |
|      the highest band given in paranthesis) ... :                           |
|                                                                             |
|                          3       (-0.01222)                                 |
|                          4       (-0.03090)                                 |
|                         17       (-0.01179)                                 |
|                         20       (-0.02305)                                 |
|                         58       (-0.03055)                                 |
|                         59       (-0.01226)                                 |
|                         60       (-0.01153)                                 |
|                                                                             |
|      The total occupancy of band no.    17 is  -0.00117 electrons ...       |
|                                                                             |
 ----------------------------------------------------------------------------- 

    CHARGE:  cpu time    2.4926: real time    2.5025
    FORLOC:  cpu time    0.0280: real time    0.0289
    FORNL :  cpu time    5.1472: real time    5.1696
    STRESS:  cpu time    8.7227: real time    8.7596
    FORCOR:  cpu time    0.2210: real time    0.2224
    FORHAR:  cpu time    0.0640: real time    0.0639
    MIXING:  cpu time    0.0280: real time    0.0273
    OFIELD:  cpu time    0.0000: real time    0.0001

  FORCE on cell =-STRESS in cart. coord.  units (eV):
  Direction    XX          YY          ZZ          XY          YZ          ZX
  --------------------------------------------------------------------------------------
  Alpha Z   162.90054   162.90054   162.90054
  Ewald    -482.33490  -482.33490  -482.33490    56.22557   -56.22557    56.22557
  Hartree    90.44219    90.44223    90.44223    61.86712   -61.86714    61.86712
  E(xc)    -122.85823  -122.85827  -122.85824    -0.27197     0.27197    -0.27194
  Local     -69.85631   -69.85621   -69.85636  -117.85390   117.85397  -117.85406
  n-local   -40.75649   -25.11228   -28.39384    -1.09770    -6.68784    -7.24490
  augment   185.91468   185.91440   185.91435     0.35701    -0.35721     0.35693
  Kinetic   278.21339   267.77533   266.45556     0.51289     2.74406     1.11487
  Fock        0.00000     0.00000     0.00000     0.00000     0.00000     0.00000
  -------------------------------------------------------------------------------------
  Total       3.60168     3.60168     3.60168    -0.60003     0.60003    -0.60003
  in kB     102.71169   102.71169   102.71169   -17.11157    17.11157   -17.11157
  external pressure =      102.71 kB  Pullay stress =        0.00 kB


 VOLUME and BASIS-vectors are now :
 -----------------------------------------------------------------------------
  energy-cutoff  :      267.97
  volume of cell :       56.18
      direct lattice vectors                 reciprocal lattice vectors
     1.915000000  1.915000000  0.000000000     0.391644909  0.130548303  0.130548303
    -3.830000000  5.745000000  5.745000000    -0.065274151  0.065274151  0.065274151
     0.000000000 -1.915000000  1.915000000     0.195822454 -0.195822454  0.326370757

  length of vectors
     2.708218972  8.982146180  2.708218972     0.432979738  0.113058147  0.428031235


 FORCES acting on ions
    electron-ion (+dipol)            ewald-force                    non-local-force                 convergence-correction
 -----------------------------------------------------------------------------------------------
   0.359E+02 -.359E+02 -.359E+02   -.364E+02 0.364E+02 0.364E+02   0.246E+00 -.246E+00 -.246E+00   -.179E-01 0.179E-01 0.179E-01
   0.612E+02 -.612E+02 -.612E+02   -.607E+02 0.607E+02 0.607E+02   0.884E+00 -.884E+00 -.884E+00   -.237E-01 0.237E-01 0.237E-01
   -.238E+02 0.238E+02 0.238E+02   0.243E+02 -.243E+02 -.243E+02   0.542E+00 -.542E+00 -.542E+00   0.118E-01 -.118E-01 -.118E-01
   -.735E+02 0.735E+02 0.735E+02   0.729E+02 -.729E+02 -.729E+02   -.149E+01 0.149E+01 0.149E+01   0.287E-01 -.287E-01 -.287E-01
 -----------------------------------------------------------------------------------------------
   -.184E+00 0.184E+00 0.184E+00   0.142E-13 -.142E-13 -.284E-13   0.186E+00 -.186E+00 -.186E+00   -.120E-02 0.120E-02 0.120E-02
 
 
 POSITION                                       TOTAL-FORCE (eV/Angst)
 -----------------------------------------------------------------------------------
      0.00000      0.00000      0.00000        -0.265478      0.265478      0.265478
      0.00000      1.91500      1.91500         1.331260     -1.331260     -1.331260
     -1.91500      1.91500      3.83000         1.048357     -1.048357     -1.048357
     -1.91500      3.83000      5.74500        -2.114139      2.114139      2.114139
 -----------------------------------------------------------------------------------
    total drift:                                0.000130     -0.000128     -0.000128


--------------------------------------------------------------------------------------------------------



  FREE ENERGIE OF THE ION-ELECTRON SYSTEM (eV)
  ---------------------------------------------------
  free  energy   TOTEN  =       -40.04667610 eV

  energy  without entropy=      -40.04338839  energy(sigma->0) =      -40.04558020
 


--------------------------------------------------------------------------------------------------------


    POTLOK:  cpu time    0.2560: real time    0.2568


--------------------------------------------------------------------------------------------------------


 writing wavefunctions
     LOOP+:  cpu time  900.3251: real time  904.2818
    4ORBIT:  cpu time    0.0000: real time    0.0001

 total amount of memory used by VASP MPI-rank0   113867. kBytes
=======================================================================

   base      :      30000. kBytes
   nonl-proj :      44287. kBytes
   fftplans  :       2748. kBytes
   grid      :       5462. kBytes
   one-center:         62. kBytes
   wavefun   :      31308. kBytes
 
  
  
 General timing and accounting informations for this job:
 ========================================================
  
                  Total CPU time used (sec):      903.839
                            User time (sec):      903.490
                          System time (sec):        0.349
                         Elapsed time (sec):      908.715
  
                   Maximum memory used (kb):      114592.
                   Average memory used (kb):           0.
  
                          Minor page faults:        30522
                          Major page faults:            8
                 Voluntary context switches:          339
