 vasp.6.0.0 18Apr17 (build Mar 23 2018 09:59:13) complex                        
  
 executed on             LinuxIFC date 2018.06.18  11:00:52
 running on    1 total cores
 distrk:  each k-point on    1 cores,    1 groups
 distr:  one band on NCORES_PER_BAND=   1 cores,    1 groups


--------------------------------------------------------------------------------------------------------


 INCAR:
 POTCAR:    PAW_PBE Co 02Aug2007                  
 POTCAR:    PAW_PBE V 08Apr2002                   
 POTCAR:    PAW_PBE W 08Apr2002                   
 POTCAR:    PAW_PBE Co 02Aug2007                  
   VRHFIN =Co: d8 s1                                                            
   LEXCH  = PE                                                                  
   EATOM  =   813.3670 eV,   59.7808 Ry                                         
                                                                                
   TITEL  = PAW_PBE Co 02Aug2007                                                
   LULTRA =        F    use ultrasoft PP ?                                      
   IUNSCR =        1    unscreen: 0-lin 1-nonlin 2-no                           
   RPACOR =    2.000    partial core radius                                     
   POMASS =   58.933; ZVAL   =    9.000    mass and valenz                      
   RCORE  =    2.300    outmost cutoff radius                                   
   RWIGS  =    2.460; RWIGS  =    1.302    wigner-seitz radius (au A)           
   ENMAX  =  267.968; ENMIN  =  200.976 eV                                      
   RCLOC  =    1.203    cutoff for local pot                                    
   LCOR   =        T    correct aug charges                                     
   LPAW   =        T    paw PP                                                  
   EAUG   =  477.818                                                            
   DEXC   =    0.000                                                            
   RMAX   =    2.360    core radius for proj-oper                               
   RAUG   =    1.300    factor for augmentation sphere                          
   RDEP   =    2.393    radius for radial grids                                 
   RDEPT  =    1.864    core radius for aug-charge                              
                                                                                
   Atomic configuration                                                         
    9 entries                                                                   
     n  l   j            E        occ.                                          
     1  0  0.50     -7587.6674   2.0000                                         
     2  0  0.50      -893.6084   2.0000                                         
     2  1  1.50      -764.5805   6.0000                                         
     3  0  0.50       -97.5973   2.0000                                         
     3  1  1.50       -60.9648   6.0000                                         
     3  2  2.50        -4.2382   8.0000                                         
     4  0  0.50        -4.3746   1.0000                                         
     4  1  1.50        -4.0817   0.0000                                         
     4  3  2.50        -1.3606   0.0000                                         
   Description                                                                  
     l       E           TYP  RCUT    TYP  RCUT                                 
     2     -4.2382362     23  2.300                                             
     2     -5.5988188     23  2.300                                             
     0     -4.3745797     23  2.300                                             
     0      5.7660125     23  2.300                                             
     1     -2.7211652     23  2.300                                             
     1     16.9860234     23  2.300                                             
  local pseudopotential read in
  partial core-charges read in
  partial kinetic energy density read in
  atomic valenz-charges read in
  non local Contribution for L=           2  read in
    real space projection operators read in
  non local Contribution for L=           2  read in
    real space projection operators read in
  non local Contribution for L=           0  read in
    real space projection operators read in
  non local Contribution for L=           0  read in
    real space projection operators read in
  non local Contribution for L=           1  read in
    real space projection operators read in
  non local Contribution for L=           1  read in
    real space projection operators read in
    PAW grid and wavefunctions read in
 
   number of l-projection  operators is LMAX  =           6
   number of lm-projection operators is LMMAX =          18
 
 POTCAR:    PAW_PBE V 08Apr2002                   
   VRHFIN =V: p6 d4 s1                                                          
   LEXCH  = PE                                                                  
   EATOM  =   170.8679 eV,   12.5584 Ry                                         
                                                                                
   TITEL  = PAW_PBE V 08Apr2002                                                 
   LULTRA =        F    use ultrasoft PP ?                                      
   IUNSCR =        1    unscreen: 0-lin 1-nonlin 2-no                           
   RPACOR =    2.000    partial core radius                                     
   POMASS =   50.941; ZVAL   =    5.000    mass and valenz                      
   RCORE  =    2.700    outmost cutoff radius                                   
   RWIGS  =    2.500; RWIGS  =    1.323    wigner-seitz radius (au A)           
   ENMAX  =  192.543; ENMIN  =  144.408 eV                                      
   RCLOC  =    1.779    cutoff for local pot                                    
   LCOR   =        T    correct aug charges                                     
   LPAW   =        T    paw PP                                                  
   EAUG   =  358.662                                                            
   DEXC   =    0.000                                                            
   RMAX   =    2.768    core radius for proj-oper                               
   RAUG   =    1.300    factor for augmentation sphere                          
   RDEP   =    2.762    radius for radial grids                                 
   RDEPT  =    2.240    core radius for aug-charge                              
                                                                                
   Atomic configuration                                                         
    9 entries                                                                   
     n  l   j            E        occ.                                          
     1  0  0.50     -5360.7193   2.0000                                         
     2  0  0.50      -598.4546   2.0000                                         
     2  1  1.50      -499.0155   6.0000                                         
     3  0  0.50       -66.5711   2.0000                                         
     3  1  1.50       -40.5282   6.0000                                         
     3  2  2.50        -2.4291   4.0000                                         
     4  0  0.50        -3.8743   1.0000                                         
     4  1  0.50        -2.7212   0.0000                                         
     4  3  2.50        -1.3606   0.0000                                         
   Description                                                                  
     l       E           TYP  RCUT    TYP  RCUT                                 
     2     -2.4290901     23  2.700                                             
     2     -3.7896727     23  2.700                                             
     0     -3.8742752     23  2.700                                             
     0     27.2116520     23  2.700                                             
     1     -2.7211652     23  2.700                                             
     1     27.2116520     23  2.700                                             
  local pseudopotential read in
  partial core-charges read in
  partial kinetic energy density read in
  atomic valenz-charges read in
  non local Contribution for L=           2  read in
    real space projection operators read in
  non local Contribution for L=           2  read in
    real space projection operators read in
  non local Contribution for L=           0  read in
    real space projection operators read in
  non local Contribution for L=           0  read in
    real space projection operators read in
  non local Contribution for L=           1  read in
    real space projection operators read in
  non local Contribution for L=           1  read in
    real space projection operators read in
    PAW grid and wavefunctions read in
 
   number of l-projection  operators is LMAX  =           6
   number of lm-projection operators is LMMAX =          18
 
 POTCAR:    PAW_PBE W 08Apr2002                   
   VRHFIN =W : 6s5d                                                             
   LEXCH  = PE                                                                  
   EATOM  =   204.6103 eV,   15.0384 Ry                                         
                                                                                
   TITEL  = PAW_PBE W 08Apr2002                                                 
   LULTRA =        F    use ultrasoft PP ?                                      
   IUNSCR =        1    unscreen: 0-lin 1-nonlin 2-no                           
   RPACOR =    2.330    partial core radius                                     
   POMASS =  183.850; ZVAL   =    6.000    mass and valenz                      
   RCORE  =    2.750    outmost cutoff radius                                   
   RWIGS  =    2.750; RWIGS  =    1.455    wigner-seitz radius (au A)           
   ENMAX  =  223.057; ENMIN  =  167.293 eV                                      
   RCLOC  =    2.147    cutoff for local pot                                    
   LCOR   =        T    correct aug charges                                     
   LPAW   =        T    paw PP                                                  
   EAUG   =  373.438                                                            
   DEXC   =    0.000                                                            
   RMAX   =    2.801    core radius for proj-oper                               
   RAUG   =    1.300    factor for augmentation sphere                          
   RDEP   =    2.886    radius for radial grids                                 
   RDEPT  =    2.230    core radius for aug-charge                              
                                                                                
   Atomic configuration                                                         
   16 entries                                                                   
     n  l   j            E        occ.                                          
     1  0  0.50    -69465.5836   2.0000                                         
     2  0  0.50    -11986.2642   2.0000                                         
     2  1  1.50    -10479.8616   6.0000                                         
     3  0  0.50     -2759.0758   2.0000                                         
     3  1  1.50     -2313.1857   6.0000                                         
     3  2  2.50     -1801.1185  10.0000                                         
     4  0  0.50      -567.6791   2.0000                                         
     4  1  1.50      -421.4694   6.0000                                         
     4  2  2.50      -236.3473  10.0000                                         
     4  3  3.50       -31.2666  14.0000                                         
     5  0  0.50       -77.1085   2.0000                                         
     5  1  1.50       -41.3856   6.0000                                         
     5  2  2.50        -3.3185   5.0000                                         
     6  0  0.50        -5.1438   1.0000                                         
     6  1  0.50        -3.8096   0.0000                                         
     5  3  2.50        -1.3606   0.0000                                         
   Description                                                                  
     l       E           TYP  RCUT    TYP  RCUT                                 
     2     -3.3185288     23  2.500                                             
     2     -1.5965414     23  2.500                                             
     0     -5.1438054     23  2.500                                             
     0      4.9117504     23  2.500                                             
     1      2.7211652     23  2.750                                             
     1     27.2116520     23  2.750                                             
  local pseudopotential read in
  partial core-charges read in
  partial kinetic energy density read in
  atomic valenz-charges read in
  non local Contribution for L=           2  read in
    real space projection operators read in
  non local Contribution for L=           2  read in
    real space projection operators read in
  non local Contribution for L=           0  read in
    real space projection operators read in
  non local Contribution for L=           0  read in
    real space projection operators read in
  non local Contribution for L=           1  read in
    real space projection operators read in
  non local Contribution for L=           1  read in
    real space projection operators read in
    PAW grid and wavefunctions read in
 
   number of l-projection  operators is LMAX  =           6
   number of lm-projection operators is LMMAX =          18
 
  PAW_PBE Co 02Aug2007                  :
 energy of atom  1       EATOM= -813.3670
 kinetic energy error for atom=    0.0366 (will be added to EATOM!!)
  PAW_PBE V 08Apr2002                   :
 energy of atom  2       EATOM= -170.8679
 kinetic energy error for atom=    0.0066 (will be added to EATOM!!)
  PAW_PBE W 08Apr2002                   :
 energy of atom  3       EATOM= -204.6103
 kinetic energy error for atom=    0.0220 (will be added to EATOM!!)
 
 
 POSCAR: Co  V  W                                
  positions in cartesian coordinates
  No initial velocities read in
 exchange correlation table for  LEXCH =        8
   RHO(1)=    0.500       N(1)  =     2000
   RHO(2)=  100.500       N(2)  =     4000
 


--------------------------------------------------------------------------------------------------------


 ion  position               nearest neighbor table
   1  0.000  0.000  0.000-   2 2.68   4 2.68   2 2.68   3 2.68   3 2.68   4 2.68   2 2.68   4 2.68
                             2 2.68   4 2.68
   2  0.500  0.000  0.500-   1 2.68   3 2.68   1 2.68   4 2.68   3 2.68   4 2.68   1 2.68   3 2.68
                             1 2.68   3 2.68
   3  0.000  0.500  0.500-   2 2.68   4 2.68   1 2.68   4 2.68   1 2.68   2 2.68   2 2.68   4 2.68
                             4 2.68   2 2.68
   4  0.500  0.500  0.000-   1 2.68   3 2.68   2 2.68   3 2.68   1 2.68   2 2.68   1 2.68   3 2.68
                             3 2.68   1 2.68
 
  LATTYP: Found a base centered orthorhombic cell.
 ALAT       =     5.3598694014
 B/A-ratio  =     1.4142135624
 C/A-ratio  =     0.5000000000
  
  Lattice vectors:
  
 A1 = (  -1.8950000000,   1.8950000000,   3.7900000000)
 A2 = (  -1.8950000000,   1.8950000000,  -3.7900000000)
 A3 = (  -1.8950000000,  -1.8950000000,   0.0000000000)


Analysis of symmetry for initial positions (statically):
=====================================================================
 Subroutine PRICEL returns:
 Original cell was already a primitive cell.
 

 Routine SETGRP: Setting up the symmetry group for a 
 base centered orthorhombic supercell.


 Subroutine GETGRP returns: Found  4 space group operations
 (whereof  4 operations were pure point group operations)
 out of a pool of  8 trial point group operations.


The static configuration has the point symmetry C_2h.


Analysis of symmetry for dynamics (positions and initial velocities):
=====================================================================
 Subroutine PRICEL returns:
 Original cell was already a primitive cell.
 

 Routine SETGRP: Setting up the symmetry group for a 
 base centered orthorhombic supercell.


 Subroutine GETGRP returns: Found  4 space group operations
 (whereof  4 operations were pure point group operations)
 out of a pool of  8 trial point group operations.


The dynamic configuration has the point symmetry C_2h.


 Subroutine INISYM returns: Found  4 space group operations
 (whereof  4 operations are pure point group operations),
 and found     1 'primitive' translations

 
 
 KPOINTS: Server version 2018.05.22. K-point grid 
  k-points in reciprocal lattice
Space group operators:
 irot       det(A)        alpha          n_x          n_y          n_z        tau_x        tau_y        tau_z
    1     1.000000     0.000000     1.000000     0.000000     0.000000     0.000000     0.000000     0.000000
    2    -1.000000     0.000000     1.000000     0.000000     0.000000     0.000000     0.000000     0.000000
    3     1.000000   180.000000     0.707107     0.707107     0.000000     0.000000     0.000000     0.000000
    4    -1.000000   180.000000     0.707107     0.707107     0.000000     0.000000     0.000000     0.000000


--------------------------------------------------------------------------------------------------------




 Dimension of arrays:
   k-points           NKPTS =    506   k-points in BZ     NKDIM =    506   number of bands    NBANDS=     16
   number of dos      NEDOS =    301   number of ions     NIONS =      4
   non local maximal  LDIM  =      6   non local SUM 2l+1 LMDIM =     18
   total plane-waves  NPLWV =  10976
   max r-space proj   IRMAX =      1   max aug-charges    IRDMAX=  12425
   dimension x,y,z NGX =    14 NGY =   28 NGZ =   28
   dimension x,y,z NGXF=    28 NGYF=   56 NGZF=   56
   support grid    NGXF=    28 NGYF=   56 NGZF=   56
   ions per type =               1   2   1
   NGX,Y,Z   is equivalent  to a cutoff of   8.68, 10.03, 10.03 a.u.
   NGXF,Y,Z  is equivalent  to a cutoff of  17.37, 20.06, 20.06 a.u.

 SYSTEM =  unknown system                          
 POSCAR =  Co  V  W                                

 Startparameter for this run:
   NWRITE =      2    write-flag & timer
   PREC   = a         normal or accurate (medium, high low for compatibility)
   ISTART =      0    job   : 0-new  1-cont  2-samecut
   ICHARG =      2    charge: 1-file 2-atom 10-const
   ISPIN  =      1    spin polarized calculation?
   LNONCOLLINEAR =      F non collinear calculations
   LSORBIT =      F    spin-orbit coupling
   INIWAV =      1    electr: 0-lowe 1-rand  2-diag
   LASPH  =      F    aspherical Exc in radial PAW
   METAGGA=      F    non-selfconsistent MetaGGA calc.

 Electronic Relaxation 1
   ENCUT  =  268.0 eV  19.70 Ry    4.44 a.u.   3.58  6.20  6.20*2*pi/ulx,y,z
   ENINI  =  268.0     initial cutoff
   ENAUG  =  477.8 eV  augmentation charge cutoff
   NELM   =     60;   NELMIN=  2; NELMDL= -5     # of ELM steps 
   EDIFF  = 0.1E-04   stopping-criterion for ELM
   LREAL  =      F    real-space projection
   NLSPLINE    = F    spline interpolate recip. space projectors
   LCOMPAT=      F    compatible to vasp.4.4
   GGA_COMPAT  = T    GGA compatible to vasp.4.4-vasp.4.6
   LMAXPAW     = -100 max onsite density
   LMAXMIX     =    2 max onsite mixed and CHGCAR
   VOSKOWN=      0    Vosko Wilk Nusair interpolation
   ROPT   =    0.00000   0.00000   0.00000
 Ionic relaxation
   EDIFFG = 0.1E-03   stopping-criterion for IOM
   NSW    =      0    number of steps for IOM
   NBLOCK =      1;   KBLOCK =      1    inner block; outer block 
   IBRION =     -1    ionic relax: 0-MD 1-quasi-New 2-CG
   NFREE  =      0    steps in history (QN), initial steepest desc. (CG)
   ISIF   =      2    stress and relaxation
   IWAVPR =     10    prediction:  0-non 1-charg 2-wave 3-comb
   ISYM   =      2    0-nonsym 1-usesym 2-fastsym
   LCORR  =      T    Harris-Foulkes like correction to forces

   POTIM  = 0.5000    time-step for ionic-motion
   TEIN   =    0.0    initial temperature
   TEBEG  =    0.0;   TEEND  =   0.0 temperature during run
   SMASS  =  -3.00    Nose mass-parameter (am)
   estimated Nose-frequenzy (Omega)   =  0.10E-29 period in steps =****** mass=  -0.164E-27a.u.
   SCALEE = 1.0000    scale energy and forces
   NPACO  =    256;   APACO  = 16.0  distance and # of slots for P.C.
   PSTRESS=    0.0 pullay stress

  Mass of Ions in am
   POMASS =  58.93 50.94183.85
  Ionic Valenz
   ZVAL   =   9.00  5.00  6.00
  Atomic Wigner-Seitz radii
   RWIGS  =  -1.00 -1.00 -1.00
  virtual crystal weights 
   VCA    =   1.00  1.00  1.00
   NELECT =      25.0000    total number of electrons
   NUPDOWN=      -1.0000    fix difference up-down

 DOS related values:
   EMIN   =  10.00;   EMAX   =-10.00  energy-range for DOS
   EFERMI =   0.00
   ISMEAR =     1;   SIGMA  =   0.20  broadening in eV -4-tet -1-fermi 0-gaus

 Electronic relaxation 2 (details)
   IALGO  =     38    algorithm
   LDIAG  =      T    sub-space diagonalisation (order eigenvalues)
   LSUBROT=      F    optimize rotation matrix (better conditioning)
   TURBO    =      0    0=normal 1=particle mesh
   IRESTART =      0    0=no restart 2=restart with 2 vectors
   NREBOOT  =      0    no. of reboots
   NMIN     =      0    reboot dimension
   EREF     =   0.00    reference energy to select bands
   IMIX   =      4    mixing-type and parameters
     AMIX     =   0.40;   BMIX     =  1.00
     AMIX_MAG =   1.60;   BMIX_MAG =  1.00
     AMIN     =   0.10
     WC   =   100.;   INIMIX=   1;  MIXPRE=   1;  MAXMIX= -45

 Intra band minimization:
   WEIMIN = 0.0000     energy-eigenvalue tresh-hold
   EBREAK =  0.16E-06  absolut break condition
   DEPER  =   0.30     relativ break condition  

   TIME   =   0.40     timestep for ELM

  volume/ion in A,a.u.               =      13.61        91.84
  Fermi-wavevector in a.u.,A,eV,Ry     =   1.263036  2.386791 21.704819  1.595259
  Thomas-Fermi vector in A             =   2.396413
 
 Write flags
   LWAVE        =      T    write WAVECAR
   LDOWNSAMPLE  =      F    k-point downsampling of WAVECAR
   LCHARG       =      T    write CHGCAR
   LVTOT        =      F    write LOCPOT, total local potential
   LVHAR        =      F    write LOCPOT, Hartree potential only
   LELF         =      F    write electronic localiz. function (ELF)
   LORBIT       =      0    0 simple, 1 ext, 2 COOP (PROOUT), +10 PAW based schemes


 Dipole corrections
   LMONO  =      F    monopole corrections only (constant potential shift)
   LDIPOL =      F    correct potential (dipole corrections)
   IDIPOL =      0    1-x, 2-y, 3-z, 4-all directions 
   EPSILON=  1.0000000 bulk dielectric constant

 Exchange correlation treatment:
   GGA     =    PE    GGA type
   LEXCH   =     8    internal setting for exchange type
   VOSKOWN=      0    Vosko Wilk Nusair interpolation
   LHFCALC =     F    Hartree Fock is set to
   LHFONE  =     F    Hartree Fock one center treatment
   AEXX    =    0.0000 exact exchange contribution

 Linear response parameters
   LEPSILON=     F    determine dielectric tensor
   LRPA    =     F    only Hartree local field effects (RPA)
   LNABLA  =     F    use nabla operator in PAW spheres
   LVEL    =     F    velocity operator in full k-point grid
   LINTERFAST=   F  fast interpolation
   KINTER  =     0    interpolate to denser k-point grid
   CSHIFT  =0.1000    complex shift for real part using Kramers Kronig
   OMEGAMAX=  -1.0    maximum frequency
   DEG_THRESHOLD= 0.2000000E-02 threshold for treating states as degnerate
   RTIME   =   -0.100 relaxation time in fs
  (WPLASMAI=    0.000 imaginary part of plasma frequency in eV, 0.658/RTIME)
   DFIELD  = 0.0000000 0.0000000 0.0000000 field for delta impulse in time
 
 Orbital magnetization related:
   ORBITALMAG=     F  switch on orbital magnetization
   LCHIMAG   =     F  perturbation theory with respect to B field
   DQ        =  0.001000  dq finite difference perturbation B field
   LLRAUG    =     F  two centre corrections for induced B field



--------------------------------------------------------------------------------------------------------


 Static calculation
 charge density and potential will be updated during run
 non-spin polarized calculation
 Variant of blocked Davidson
 Davidson routine will perform the subspace rotation
 perform sub-space diagonalisation
    after iterative eigenvector-optimisation
 modified Broyden-mixing scheme, WC =      100.0
 initial mixing is a Kerker type mixing with AMIX =  0.4000 and BMIX =      1.0000
 Hartree-type preconditioning will be used
 using additional bands            3
 reciprocal scheme for non local part
 use partial core corrections
 calculate Harris-corrections to forces 
   (improved forces if not selfconsistent)
 use gradient corrections 
 use of overlap-Matrix (Vanderbilt PP)
 Methfessel and Paxton  Order N= 1 SIGMA  =   0.20


--------------------------------------------------------------------------------------------------------


  energy-cutoff  :      267.97
  volume of cell :       54.44
      direct lattice vectors                 reciprocal lattice vectors
     1.895000000  1.895000000  0.000000000     0.263852243  0.263852243  0.000000000
    -1.895000000  1.895000000  3.790000000    -0.131926121  0.131926121  0.131926121
     1.895000000 -1.895000000  3.790000000     0.131926121 -0.131926121  0.131926121

  length of vectors
     2.679934701  4.641783063  4.641783063     0.373143420  0.228502745  0.228502745


 
 k-points in units of 2pi/SCALE and weight: Server version 2018.05.22. K-point grid 
   0.25639555  0.24492371  0.25524837       0.002
   0.25094643  0.27675806  0.23373867       0.001
  -0.01835494  0.04474016  0.21222898       0.002
  -0.02380406  0.07657451  0.19071928       0.002
  -0.02925318  0.10840886  0.16920959       0.002
  -0.03470231  0.14024320  0.14769990       0.002
  -0.04015143  0.17207755  0.12619020       0.002
   0.08632557  0.07198577  0.23660663       0.002
   0.08087645  0.10382012  0.21509694       0.002
   0.07542733  0.13565447  0.19358724       0.002
   0.06997820  0.16748881  0.17207755       0.002
   0.06452908  0.19932316  0.15056786       0.001
   0.05907996  0.23115751  0.12905816       0.002
   0.05363084  0.26299185  0.10754847       0.002
   0.18010784  0.16290008  0.21796490       0.002
   0.17465871  0.19473443  0.19645520       0.002
   0.16920959  0.22656877  0.17494551       0.002
   0.16376047  0.25840312  0.15343582       0.002
   0.15831135  0.29023747  0.13192612       0.002
   0.15286222  0.32207181  0.11041643       0.002
   0.27933922  0.22198004  0.22083286       0.002
   0.01003786 -0.01003786  0.19932316       0.001
   0.00458873  0.02179649  0.17781347       0.002
  -0.00086039  0.05363084  0.15630377       0.002
  -0.00630951  0.08546518  0.13479408       0.002
  -0.01175863  0.11729953  0.11328439       0.002
  -0.01720775  0.14913388  0.09177469       0.002
   0.10926924  0.04904210  0.20219112       0.002
   0.10382012  0.08087645  0.18068143       0.002
   0.09837100  0.11271079  0.15917173       0.002
   0.09292188  0.14454514  0.13766204       0.002
   0.08747275  0.17637949  0.11615235       0.001
   0.08202363  0.20821384  0.09464265       0.002
   0.20850063  0.10812206  0.20505908       0.002
   0.20305151  0.13995641  0.18354939       0.002
   0.19760239  0.17179075  0.16203969       0.002
   0.19215326  0.20362510  0.14053000       0.002
   0.18670414  0.23545945  0.11902031       0.002
   0.18125502  0.26729379  0.09751061       0.002
   0.17580590  0.29912814  0.07600092       0.002
   0.30228290  0.19903637  0.18641735       0.002
   0.03298153 -0.03298153  0.16490765       0.001
   0.02753241 -0.00114718  0.14339796       0.002
   0.02208329  0.03068716  0.12188826       0.002
   0.01663416  0.06252151  0.10037857       0.002
   0.01118504  0.09435586  0.07886888       0.002
   0.13766204 -0.00573592  0.18928530       0.002
   0.13221292  0.02609843  0.16777561       0.002
   0.12676379  0.05793278  0.14626592       0.002
   0.12131467  0.08976712  0.12475622       0.002
   0.11586555  0.12160147  0.10324653       0.002
   0.11041643  0.15343582  0.08173684       0.001
   0.10496731  0.18527016  0.06022714       0.002
   0.23144430  0.08517839  0.17064357       0.002
   0.22599518  0.11701273  0.14913388       0.002
   0.22054606  0.14884708  0.12762418       0.002
   0.21509694  0.18068143  0.10611449       0.002
   0.20964781  0.21251577  0.08460480       0.002
   0.20419869  0.24435012  0.06309510       0.002
   0.19874957  0.27618447  0.04158541       0.002
   0.32522657  0.17609269  0.15200184       0.002
   0.05592520 -0.05592520  0.13049214       0.001
   0.05047608 -0.02409086  0.10898245       0.002
   0.04502696  0.00774349  0.08747275       0.002
   0.03957784  0.03957784  0.06596306       0.002
   0.03412871  0.07141218  0.04445337       0.002
   0.16060571 -0.02867959  0.15486979       0.002
   0.15515659  0.00315476  0.13336010       0.002
   0.14970747  0.03498910  0.11185041       0.002
   0.14425835  0.06682345  0.09034071       0.002
   0.13880922  0.09865780  0.06883102       0.002
   0.13336010  0.13049214  0.04732133       0.001
   0.12791098  0.16232649  0.02581163       0.002
   0.25438798  0.06223471  0.13622806       0.002
   0.24893886  0.09406906  0.11471837       0.002
   0.24348973  0.12590341  0.09320867       0.002
   0.23804061  0.15773775  0.07169898       0.002
   0.23259149  0.18957210  0.05018929       0.002
   0.22714237  0.22140645  0.02867959       0.002
   0.35361936  0.12131467  0.13909602       0.002
   0.34817024  0.15314902  0.11758633       0.002
   0.07886888 -0.07886888  0.09607663       0.001
   0.07341975 -0.04703453  0.07456694       0.002
   0.06797063 -0.01520018  0.05305724       0.002
   0.06252151  0.01663416  0.03154755       0.002
   0.05707239  0.04846851  0.01003786       0.002
   0.18354939 -0.05162326  0.12045428       0.002
   0.17810026 -0.01978892  0.09894459       0.002
   0.04072502  0.14397155  0.20936102       0.002
   0.03527590  0.17580590  0.18785132       0.002
   0.02982678  0.20764024  0.16634163       0.002
   0.02437765  0.23947459  0.14483194       0.001
   0.15085465  0.13938282  0.25524837       0.002
   0.14540553  0.17121716  0.23373867       0.002
   0.13995641  0.20305151  0.21222898       0.002
   0.13450728  0.23488586  0.19071928       0.002
   0.12905816  0.26672020  0.16920959       0.002
   0.11815992  0.33038890  0.12619020       0.002
   0.24463692  0.23029712  0.23660663       0.002
   0.23918779  0.26213147  0.21509694       0.002
  -0.03011357  0.03011357  0.19358724       0.001
  -0.03556269  0.06194792  0.17207755       0.002
  -0.04101182  0.09378226  0.15056786       0.002
  -0.04646094  0.12561661  0.12905816       0.002
  -0.05191006  0.15745096  0.10754847       0.002
   0.07456694  0.05735918  0.21796490       0.002
   0.06366869  0.12102788  0.17494551       0.002
   0.05821957  0.15286222  0.15343582       0.002
   0.05277045  0.18469657  0.13192612       0.002
   0.04732133  0.21653092  0.11041643       0.001
   0.17379833  0.11643914  0.22083286       0.002
   0.16834920  0.14827349  0.19932316       0.002
   0.16290008  0.18010784  0.17781347       0.002
   0.15745096  0.21194218  0.15630377       0.002
   0.15200184  0.24377653  0.13479408       0.002
   0.14110359  0.30744522  0.09177469       0.002
   0.26758059  0.20735345  0.20219112       0.002
   0.26213147  0.23918779  0.18068143       0.002
  -0.00716990  0.00716990  0.15917173       0.001
  -0.01261902  0.03900424  0.13766204       0.002
  -0.01806814  0.07083859  0.11615235       0.002
  -0.02351727  0.10267294  0.09464265       0.002
   0.10295973  0.00258116  0.20505908       0.002
   0.09751061  0.03441551  0.18354939       0.002
   0.08661237  0.09808420  0.14053000       0.002
   0.08116324  0.12991855  0.11902031       0.002
   0.07571412  0.16175290  0.09751061       0.002
   0.07026500  0.19358724  0.07600092       0.001
   0.19674200  0.09349547  0.18641735       0.002
   0.19129288  0.12532982  0.16490765       0.002
   0.18584375  0.15716416  0.14339796       0.002
   0.18039463  0.18899851  0.12188826       0.002
   0.17494551  0.22083286  0.10037857       0.002
   0.29597339  0.15257543  0.18928530       0.002
   0.29052426  0.18440977  0.16777561       0.002
   0.28507514  0.21624412  0.14626592       0.002
   0.01577378 -0.01577378  0.12475622       0.001
   0.01032465  0.01606057  0.10324653       0.002
   0.00487553  0.04789492  0.08173684       0.002
  -0.00057359  0.07972926  0.06022714       0.002
   0.12590341 -0.02036251  0.17064357       0.002
   0.12045428  0.01147184  0.14913388       0.002
   0.10955604  0.07514053  0.10611449       0.002
   0.10410692  0.10697488  0.08460480       0.002
   0.09865780  0.13880922  0.06309510       0.002
   0.09320867  0.17064357  0.04158541       0.001
   0.21968567  0.07055180  0.15200184       0.002
   0.21423655  0.10238614  0.13049214       0.002
   0.20878743  0.13422049  0.10898245       0.002
   0.20333830  0.16605484  0.08747275       0.002
   0.19788918  0.19788918  0.06596306       0.002
   0.31891706  0.12963175  0.15486979       0.002
   0.31346794  0.16146610  0.13336010       0.002
   0.30801881  0.19330045  0.11185041       0.002
   0.03871745 -0.03871745  0.09034071       0.001
   0.03326833 -0.00688310  0.06883102       0.002
   0.02781920  0.02495124  0.04732133       0.002
   0.02237008  0.05678559  0.02581163       0.002
   0.14884708 -0.04330618  0.13622806       0.002
   0.14339796 -0.01147184  0.11471837       0.002
   0.13249971  0.05219686  0.07169898       0.002
   0.12705059  0.08403120  0.05018929       0.002
   0.12160147  0.11586555  0.02867959       0.002
   0.24807847  0.01577378  0.13909602       0.001
   0.24262934  0.04760812  0.11758633       0.002
   0.23718022  0.07944247  0.09607663       0.002
   0.23173110  0.11127682  0.07456694       0.002
   0.22628198  0.14311116  0.05305724       0.002
   0.22083286  0.17494551  0.03154755       0.002
   0.34186073  0.10668808  0.12045428       0.002
   0.33641161  0.13852243  0.09894459       0.002
   0.19903637  0.30228290  0.20936102       0.002
  -0.07026500  0.07026500  0.18785132       0.001
  -0.07571412  0.10209935  0.16634163       0.002
  -0.08116324  0.13393369  0.14483194       0.002
   0.04531375  0.03384192  0.25524837       0.002
   0.03986463  0.06567626  0.23373867       0.002
   0.03441551  0.09751061  0.21222898       0.002
   0.02351727  0.16117930  0.16920959       0.002
   0.01806814  0.19301365  0.14769990       0.002
   0.01261902  0.22484800  0.12619020       0.002
   0.13909602  0.12475622  0.23660663       0.001
   0.13364690  0.15659057  0.21509694       0.002
   0.12274865  0.22025926  0.17207755       0.002
   0.11729953  0.25209361  0.15056786       0.002
   0.11185041  0.28392796  0.12905816       0.002
   0.23287828  0.21567053  0.21796490       0.002
   0.22742916  0.24750488  0.19645520       0.002
   0.22198004  0.27933922  0.17494551       0.002
  -0.04732133  0.04732133  0.15343582       0.001
  -0.05277045  0.07915567  0.13192612       0.002
   0.06825743  0.01089824  0.22083286       0.002
   0.06280831  0.04273259  0.19932316       0.002
   0.05735918  0.07456694  0.17781347       0.002
   0.04646094  0.13823563  0.13479408       0.002
   0.04101182  0.17006998  0.11328439       0.002
   0.03556269  0.20190432  0.09177469       0.002
   0.16203969  0.10181255  0.20219112       0.001
   0.15659057  0.13364690  0.18068143       0.002
   0.14569233  0.19731559  0.13766204       0.002
   0.14024320  0.22914994  0.11615235       0.002
   0.13479408  0.26098428  0.09464265       0.002
   0.25582196  0.19272686  0.18354939       0.002
   0.25037283  0.22456120  0.16203969       0.002
   0.24492371  0.25639555  0.14053000       0.002
  -0.02437765  0.02437765  0.11902031       0.001
  -0.02982678  0.05621200  0.09751061       0.002
   0.09120110 -0.01204543  0.18641735       0.002
   0.08575198  0.01978892  0.16490765       0.002
   0.08030286  0.05162326  0.14339796       0.002
   0.06940461  0.11529196  0.10037857       0.002
   0.06395549  0.14712630  0.07886888       0.002
   0.19043249  0.04703453  0.18928530       0.002
   0.18498337  0.07886888  0.16777561       0.001
   0.17953424  0.11070322  0.14626592       0.002
   0.16863600  0.17437192  0.10324653       0.002
   0.16318688  0.20620626  0.08173684       0.002
   0.15773775  0.23804061  0.06022714       0.002
   0.27876563  0.16978318  0.14913388       0.002
   0.27331651  0.20161753  0.12762418       0.002
   0.26786739  0.23345188  0.10611449       0.002
  -0.00143398  0.00143398  0.08460480       0.001
  -0.00688310  0.03326833  0.06309510       0.002
   0.11414477 -0.03498910  0.15200184       0.002
   0.10869565 -0.00315476  0.13049214       0.002
   0.10324653  0.02867959  0.10898245       0.002
   0.09234828  0.09234828  0.06596306       0.002
   0.08689916  0.12418263  0.04445337       0.002
   0.21337616  0.02409086  0.15486979       0.002
   0.20792704  0.05592520  0.13336010       0.001
   0.20247792  0.08775955  0.11185041       0.002
   0.19157967  0.15142824  0.06883102       0.002
   0.18613055  0.18326259  0.04732133       0.002
   0.18068143  0.21509694  0.02581163       0.002
   0.30170930  0.14683951  0.11471837       0.002
   0.29626018  0.17867386  0.09320867       0.002
   0.29081106  0.21050820  0.07169898       0.002
   0.02150969 -0.02150969  0.05018929       0.001
   0.01606057  0.01032465  0.02867959       0.002
   0.13708845 -0.05793278  0.11758633       0.002
   0.13163933 -0.02609843  0.09607663       0.002
   0.12619020  0.00573592  0.07456694       0.002
   0.11529196  0.06940461  0.03154755       0.002
   0.10984284  0.10123896  0.01003786       0.002
   0.23631983  0.00114718  0.12045428       0.002
   0.23087071  0.03298153  0.09894459       0.001
   0.09349547  0.19674200  0.20936102       0.002
   0.08259722  0.26041069  0.16634163       0.002
   0.07714810  0.29224504  0.14483194       0.002
   0.20362510  0.19215326  0.25524837       0.002
   0.19272686  0.25582196  0.21222898       0.002
   0.18182861  0.31949065  0.16920959       0.002
  -0.08747275  0.08747275  0.14769990       0.001
  -0.09292188  0.11930710  0.12619020       0.002
   0.02810600  0.05104967  0.21509694       0.002
   0.02265688  0.08288402  0.19358724       0.002
   0.01720775  0.11471837  0.17207755       0.002
   0.00630951  0.17838706  0.12905816       0.002
   0.12733739  0.11012963  0.21796490       0.002
   0.12188826  0.14196398  0.19645520       0.001
   0.11643914  0.17379833  0.17494551       0.002
   0.10554090  0.23746702  0.13192612       0.002
   0.10009177  0.26930137  0.11041643       0.002
   0.22656877  0.16920959  0.22083286       0.002
   0.21567053  0.23287828  0.17781347       0.002
   0.20477228  0.29654698  0.13479408       0.002
  -0.06452908  0.06452908  0.11328439       0.001
  -0.06997820  0.09636343  0.09177469       0.002
   0.05104967  0.02810600  0.18068143       0.002
   0.04560055  0.05994035  0.15917173       0.002
   0.04015143  0.09177469  0.13766204       0.002
   0.02925318  0.15544339  0.09464265       0.002
   0.15028106  0.08718596  0.18354939       0.002
   0.14483194  0.11902031  0.16203969       0.001
   0.13938282  0.15085465  0.14053000       0.002
   0.12848457  0.21452335  0.09751061       0.002
   0.12303545  0.24635769  0.07600092       0.002
   0.24951245  0.14626592  0.18641735       0.002
   0.23861420  0.20993461  0.14339796       0.002
   0.22771596  0.27360330  0.10037857       0.002
  -0.04158541  0.04158541  0.07886888       0.001
   0.08489159 -0.05850637  0.18928530       0.002
   0.07399335  0.00516233  0.14626592       0.002
   0.06854422  0.03699667  0.12475622       0.002
   0.06309510  0.06883102  0.10324653       0.002
   0.05219686  0.13249971  0.06022714       0.002
   0.17322473  0.06424229  0.14913388       0.002
   0.16777561  0.09607663  0.12762418       0.001
   0.16232649  0.12791098  0.10611449       0.002
   0.15142824  0.19157967  0.06309510       0.002
   0.14597912  0.22341402  0.04158541       0.002
   0.27245612  0.12332224  0.15200184       0.002
   0.26155788  0.18699094  0.10898245       0.002
   0.25065963  0.25065963  0.06596306       0.002
  -0.01864173  0.01864173  0.04445337       0.001
   0.10783526 -0.08145004  0.15486979       0.002
   0.09693702 -0.01778135  0.11185041       0.002
   0.09148790  0.01405300  0.09034071       0.002
   0.08603877  0.04588735  0.06883102       0.002
   0.07514053  0.10955604  0.02581163       0.002
   0.19616841  0.04129861  0.11471837       0.002
   0.19071928  0.07313296  0.09320867       0.001
   0.18527016  0.10496731  0.07169898       0.002
   0.17437192  0.16863600  0.02867959       0.002
   0.30084892  0.06854422  0.13909602       0.002
   0.29539979  0.10037857  0.11758633       0.002
   0.28450155  0.16404726  0.07456694       0.002
   0.27360330  0.22771596  0.03154755       0.002
   0.00430194 -0.00430194  0.01003786       0.001
   0.13077894 -0.10439371  0.12045428       0.002
  -0.01204543  0.09120110  0.20936102       0.002
  -0.01749455  0.12303545  0.18785132       0.002
  -0.02294367  0.15486979  0.16634163       0.002
   0.09808420  0.08661237  0.25524837       0.002
   0.08718596  0.15028106  0.21222898       0.002
   0.08173684  0.18211541  0.19071928       0.001
   0.07628771  0.21394975  0.16920959       0.002
   0.06538947  0.27761845  0.12619020       0.002
   0.18641735  0.20936102  0.21509694       0.002
   0.17551910  0.27302971  0.17207755       0.002
   0.16462086  0.33669841  0.12905816       0.002
  -0.10468051  0.10468051  0.10754847       0.001
   0.02179649  0.00458873  0.21796490       0.002
   0.01089824  0.06825743  0.17494551       0.002
  -0.00000000  0.13192612  0.13192612       0.002
   0.12102788  0.06366869  0.22083286       0.002
   0.11012963  0.12733739  0.17781347       0.002
   0.10468051  0.15917173  0.15630377       0.001
   0.09923139  0.19100608  0.13479408       0.002
   0.08833314  0.25467477  0.09177469       0.002
   0.20936102  0.18641735  0.18068143       0.002
   0.19846277  0.25008604  0.13766204       0.002
   0.18756453  0.31375473  0.09464265       0.002
   0.05018929 -0.05018929  0.20505908       0.001
   0.04474016 -0.01835494  0.18354939       0.002
   0.03384192  0.04531375  0.14053000       0.002
   0.02294367  0.10898245  0.09751061       0.002
   0.14397155  0.04072502  0.18641735       0.002
   0.13307331  0.10439371  0.14339796       0.002
   0.12762418  0.13622806  0.12188826       0.001
   0.12217506  0.16806241  0.10037857       0.002
   0.24320294  0.09980498  0.18928530       0.002
   0.23230469  0.16347367  0.14626592       0.002
   0.22140645  0.22714237  0.10324653       0.002
   0.21050820  0.29081106  0.06022714       0.002
   0.07313296 -0.07313296  0.17064357       0.001
   0.06768384 -0.04129861  0.14913388       0.002
   0.05678559  0.02237008  0.10611449       0.002
   0.04588735  0.08603877  0.06309510       0.002
   0.16691522  0.01778135  0.15200184       0.002
   0.15601698  0.08145004  0.10898245       0.002
   0.15056786  0.11328439  0.08747275       0.001
   0.14511873  0.14511873  0.06596306       0.002
   0.26614661  0.07686131  0.15486979       0.002
   0.25524837  0.14053000  0.11185041       0.002
   0.24435012  0.20419869  0.06883102       0.002
   0.23345188  0.26786739  0.02581163       0.002
   0.09607663 -0.09607663  0.13622806       0.001
   0.09062751 -0.06424229  0.11471837       0.002
   0.07972926 -0.00057359  0.07169898       0.002
   0.06883102  0.06309510  0.02867959       0.002
   0.18985890 -0.00516233  0.11758633       0.002
   0.17896065  0.05850637  0.07456694       0.002
   0.17351153  0.09034071  0.05305724       0.001
   0.16806241  0.12217506  0.03154755       0.002
   0.28909028  0.05391763  0.12045428       0.002
   0.14626592  0.24951245  0.20936102       0.002
   0.13536767  0.31318114  0.16634163       0.002
  -0.04158541  0.04158541  0.21079500       0.001
  -0.05248365  0.10525410  0.16777561       0.002
  -0.06338190  0.16892279  0.12475622       0.002
   0.05764598  0.10066537  0.21366296       0.002
   0.04674773  0.16433406  0.17064357       0.002
   0.03584949  0.22800275  0.12762418       0.001
   0.15687737  0.15974533  0.21653092       0.002
   0.14597912  0.22341402  0.17351153       0.002
   0.13508088  0.28708271  0.13049214       0.002
   0.25610875  0.21882528  0.21939888       0.002
  -0.01864173  0.01864173  0.17637949       0.001
  -0.02953998  0.08231043  0.13336010       0.002
   0.09148790  0.01405300  0.22226683       0.002
   0.08058965  0.07772169  0.17924745       0.002
   0.06969141  0.14139039  0.13622806       0.002
   0.05879316  0.20505908  0.09320867       0.001
   0.17982104  0.13680165  0.18211541       0.002
   0.16892279  0.20047035  0.13909602       0.002
   0.15802455  0.26413904  0.09607663       0.002
   0.27905243  0.19588161  0.18498337       0.002
   0.00430194 -0.00430194  0.14196398       0.001
  -0.00659631  0.05936675  0.09894459       0.002
   0.11443157 -0.00889067  0.18785132       0.002
   0.10353333  0.05477802  0.14483194       0.002
   0.09263508  0.11844671  0.10181255       0.002
   0.08173684  0.18211541  0.05879316       0.001
   0.20276471  0.11385798  0.14769990       0.002
   0.19186647  0.17752667  0.10468051       0.002
   0.18096822  0.24119537  0.06166112       0.002
   0.30199610  0.17293794  0.15056786       0.002
   0.02724561 -0.02724561  0.10754847       0.001
   0.01634737  0.03642308  0.06452908       0.002
   0.13737524 -0.03183435  0.15343582       0.002
   0.12647700  0.03183435  0.11041643       0.002
   0.11557875  0.09550304  0.06739704       0.002
   0.23660663  0.02724561  0.15630377       0.001
   0.22570839  0.09091431  0.11328439       0.002
   0.21481014  0.15458300  0.07026500       0.002
   0.20391190  0.21825169  0.02724561       0.002
   0.32493977  0.14999426  0.11615235       0.002
   0.31404153  0.21366296  0.07313296       0.001
   0.03929104  0.01347941  0.03011357       0.002
   0.16031892 -0.05477802  0.11902031       0.002
   0.14942067  0.00889067  0.07600092       0.002
   0.13852243  0.07255937  0.03298153       0.002
   0.12762418  0.13622806  0.25381439       0.001
   0.11672594  0.19989675  0.21079500       0.002
   0.10582769  0.26356545  0.16777561       0.002
   0.21595732  0.25897671  0.21366296       0.002
  -0.05879316  0.05879316  0.17064357       0.001
  -0.06969141  0.12246186  0.12762418       0.002
   0.05133647  0.05420443  0.21653092       0.002
   0.02953998  0.18154181  0.13049214       0.002
   0.15056786  0.11328439  0.21939888       0.001
   0.13966961  0.17695308  0.17637949       0.002
   0.12877137  0.24062177  0.13336010       0.002
   0.23890100  0.23603304  0.17924745       0.002
  -0.03584949  0.03584949  0.13622806       0.001
  -0.04674773  0.09951818  0.09320867       0.002
   0.07428014  0.03126075  0.18211541       0.002
   0.05248365  0.15859814  0.09607663       0.002
   0.17351153  0.09034071  0.18498337       0.001
   0.16261328  0.15400941  0.14196398       0.002
   0.15171504  0.21767810  0.09894459       0.002
   0.26184467  0.21308937  0.14483194       0.002
  -0.01290582  0.01290582  0.10181255       0.001
  -0.02380406  0.07657451  0.05879316       0.002
   0.09722382  0.00831708  0.14769990       0.002
   0.07542733  0.13565447  0.06166112       0.002
   0.19645520  0.06739704  0.15056786       0.001
   0.18555696  0.13106573  0.10754847       0.002
   0.17465871  0.19473443  0.06452908       0.002
   0.28478834  0.19014569  0.11041643       0.002
   0.27389010  0.25381439  0.06739704       0.001
   0.13106573 -0.07829529  0.15630377       0.002
   0.12016749 -0.01462659  0.11328439       0.002
   0.09837100  0.11271079  0.02724561       0.002
   0.21939888  0.04445337  0.11615235       0.001
   0.20850063  0.10812206  0.07313296       0.002
   0.19760239  0.17179075  0.03011357       0.002
   0.30773202  0.16720202  0.07600092       0.002
   0.03298153 -0.03298153  0.03298153       0.001
   0.02208329  0.03068716  0.25381439       0.002
   0.01118504  0.09435586  0.21079500       0.002
  -0.01061145  0.22169324  0.12475622       0.002
   0.11041643  0.15343582  0.21366296       0.001
   0.08861994  0.28077320  0.12762418       0.002
   0.19874957  0.27618447  0.17351153       0.002
  -0.07600092  0.07600092  0.13049214       0.001
   0.03412871  0.07141218  0.17637949       0.002
   0.14425835  0.06682345  0.22226683       0.002
   0.13336010  0.13049214  0.17924745       0.001
   0.11156361  0.25782953  0.09320867       0.002
   0.22169324  0.25324079  0.13909602       0.002
  -0.05305724  0.05305724  0.09607663       0.001
   0.05707239  0.04846851  0.14196398       0.002
   0.16720202  0.04387978  0.18785132       0.002
   0.15630377  0.10754847  0.14483194       0.001
   0.13450728  0.23488586  0.05879316       0.002
   0.24463692  0.23029712  0.10468051       0.002
  -0.03011357  0.03011357  0.06166112       0.001
   0.08001606  0.02552484  0.10754847       0.002
   0.19014569  0.02093610  0.15343582       0.002
   0.17924745  0.08460480  0.11041643       0.001
   0.28937708  0.08001606  0.15630377       0.002
   0.26758059  0.20735345  0.07026500       0.002
  -0.00716990  0.00716990  0.02724561       0.001
   0.10295973  0.00258116  0.07313296       0.002
   0.21308937 -0.00200757  0.11902031       0.002
   0.20219112  0.06166112  0.07600092       0.001
   0.18039463  0.18899851  0.25381439       0.002
  -0.11615235  0.11615235  0.12475622       0.001
  -0.00602271  0.11156361  0.17064357       0.002
   0.09320867  0.17064357  0.17351153       0.001
   0.20333830  0.16605484  0.21939888       0.002
   0.03871745 -0.03871745  0.22226683       0.001
   0.01692096  0.08861994  0.13622806       0.002
   0.11615235  0.14769990  0.13909602       0.001
   0.22628198  0.14311116  0.18498337       0.002
   0.06166112 -0.06166112  0.18785132       0.001
   0.03986463  0.06567626  0.10181255       0.002
   0.13909602  0.12475622  0.10468051       0.001
   0.24922565  0.12016749  0.15056786       0.002
   0.08460480 -0.08460480  0.15343582       0.001
   0.06280831  0.04273259  0.06739704       0.002
   0.16203969  0.10181255  0.07026500       0.001
   0.27216932  0.09722382  0.11615235       0.002
   0.10754847 -0.10754847  0.11902031       0.001
   0.08575198  0.01978892  0.03298153       0.002
   0.05305724  0.21079500  0.16777561       0.001
  -0.00143398  0.00143398  0.21653092       0.001
   0.07600092  0.18785132  0.13336010       0.001
   0.02150969 -0.02150969  0.18211541       0.001
   0.09894459  0.16490765  0.09894459       0.001
   0.04445337 -0.04445337  0.14769990       0.001
   0.12188826  0.14196398  0.06452908       0.001
   0.06739704 -0.06739704  0.11328439       0.001
   0.14483194  0.11902031  0.03011357       0.001
 
 k-points in reciprocal lattice and weights: Server version 2018.05.22. K-point grid 
   0.95000000  0.94565217  0.98913043       0.002
   1.00000000  0.93478261  0.83695652       0.001
   0.05000000  0.92391304  0.68478261       0.002
   0.10000000  0.91304348  0.53260870       0.002
   0.15000000  0.90217391  0.38043478       0.002
   0.20000000  0.89130435  0.22826087       0.002
   0.25000000  0.88043478  0.07608696       0.002
   0.30000000  0.86956522  0.92391304       0.002
   0.35000000  0.85869565  0.77173913       0.002
   0.40000000  0.84782609  0.61956522       0.002
   0.45000000  0.83695652  0.46739130       0.002
   0.50000000  0.82608696  0.31521739       0.001
   0.55000000  0.81521739  0.16304348       0.002
   0.60000000  0.80434783  0.01086957       0.002
   0.65000000  0.79347826  0.85869565       0.002
   0.70000000  0.78260870  0.70652174       0.002
   0.75000000  0.77173913  0.55434783       0.002
   0.80000000  0.76086957  0.40217391       0.002
   0.85000000  0.75000000  0.25000000       0.002
   0.90000000  0.73913043  0.09782609       0.002
   0.95000000  0.72826087  0.94565217       0.002
   0.00000000  0.71739130  0.79347826       0.001
   0.05000000  0.70652174  0.64130435       0.002
   0.10000000  0.69565217  0.48913043       0.002
   0.15000000  0.68478261  0.33695652       0.002
   0.20000000  0.67391304  0.18478261       0.002
   0.25000000  0.66304348  0.03260870       0.002
   0.30000000  0.65217391  0.88043478       0.002
   0.35000000  0.64130435  0.72826087       0.002
   0.40000000  0.63043478  0.57608696       0.002
   0.45000000  0.61956522  0.42391304       0.002
   0.50000000  0.60869565  0.27173913       0.001
   0.55000000  0.59782609  0.11956522       0.002
   0.60000000  0.58695652  0.96739130       0.002
   0.65000000  0.57608696  0.81521739       0.002
   0.70000000  0.56521739  0.66304348       0.002
   0.75000000  0.55434783  0.51086957       0.002
   0.80000000  0.54347826  0.35869565       0.002
   0.85000000  0.53260870  0.20652174       0.002
   0.90000000  0.52173913  0.05434783       0.002
   0.95000000  0.51086957  0.90217391       0.002
   0.00000000  0.50000000  0.75000000       0.001
   0.05000000  0.48913043  0.59782609       0.002
   0.10000000  0.47826087  0.44565217       0.002
   0.15000000  0.46739130  0.29347826       0.002
   0.20000000  0.45652174  0.14130435       0.002
   0.25000000  0.44565217  0.98913043       0.002
   0.30000000  0.43478261  0.83695652       0.002
   0.35000000  0.42391304  0.68478261       0.002
   0.40000000  0.41304348  0.53260870       0.002
   0.45000000  0.40217391  0.38043478       0.002
   0.50000000  0.39130435  0.22826087       0.001
   0.55000000  0.38043478  0.07608696       0.002
   0.60000000  0.36956522  0.92391304       0.002
   0.65000000  0.35869565  0.77173913       0.002
   0.70000000  0.34782609  0.61956522       0.002
   0.75000000  0.33695652  0.46739130       0.002
   0.80000000  0.32608696  0.31521739       0.002
   0.85000000  0.31521739  0.16304348       0.002
   0.90000000  0.30434783  0.01086957       0.002
   0.95000000  0.29347826  0.85869565       0.002
   0.00000000  0.28260870  0.70652174       0.001
   0.05000000  0.27173913  0.55434783       0.002
   0.10000000  0.26086957  0.40217391       0.002
   0.15000000  0.25000000  0.25000000       0.002
   0.20000000  0.23913043  0.09782609       0.002
   0.25000000  0.22826087  0.94565217       0.002
   0.30000000  0.21739130  0.79347826       0.002
   0.35000000  0.20652174  0.64130435       0.002
   0.40000000  0.19565217  0.48913043       0.002
   0.45000000  0.18478261  0.33695652       0.002
   0.50000000  0.17391304  0.18478261       0.001
   0.55000000  0.16304348  0.03260870       0.002
   0.60000000  0.15217391  0.88043478       0.002
   0.65000000  0.14130435  0.72826087       0.002
   0.70000000  0.13043478  0.57608696       0.002
   0.75000000  0.11956522  0.42391304       0.002
   0.80000000  0.10869565  0.27173913       0.002
   0.85000000  0.09782609  0.11956522       0.002
   0.90000000  0.08695652  0.96739130       0.002
   0.95000000  0.07608696  0.81521739       0.002
   0.00000000  0.06521739  0.66304348       0.001
   0.05000000  0.05434783  0.51086957       0.002
   0.10000000  0.04347826  0.35869565       0.002
   0.15000000  0.03260870  0.20652174       0.002
   0.20000000  0.02173913  0.05434783       0.002
   0.25000000  0.01086957  0.90217391       0.002
   0.30000000  0.00000000  0.75000000       0.002
   0.35000000  0.98913043  0.59782609       0.002
   0.40000000  0.97826087  0.44565217       0.002
   0.45000000  0.96739130  0.29347826       0.002
   0.50000000  0.95652174  0.14130435       0.001
   0.55000000  0.94565217  0.98913043       0.002
   0.60000000  0.93478261  0.83695652       0.002
   0.65000000  0.92391304  0.68478261       0.002
   0.70000000  0.91304348  0.53260870       0.002
   0.75000000  0.90217391  0.38043478       0.002
   0.85000000  0.88043478  0.07608696       0.002
   0.90000000  0.86956522  0.92391304       0.002
   0.95000000  0.85869565  0.77173913       0.002
   0.00000000  0.84782609  0.61956522       0.001
   0.05000000  0.83695652  0.46739130       0.002
   0.10000000  0.82608696  0.31521739       0.002
   0.15000000  0.81521739  0.16304348       0.002
   0.20000000  0.80434783  0.01086957       0.002
   0.25000000  0.79347826  0.85869565       0.002
   0.35000000  0.77173913  0.55434783       0.002
   0.40000000  0.76086957  0.40217391       0.002
   0.45000000  0.75000000  0.25000000       0.002
   0.50000000  0.73913043  0.09782609       0.001
   0.55000000  0.72826087  0.94565217       0.002
   0.60000000  0.71739130  0.79347826       0.002
   0.65000000  0.70652174  0.64130435       0.002
   0.70000000  0.69565217  0.48913043       0.002
   0.75000000  0.68478261  0.33695652       0.002
   0.85000000  0.66304348  0.03260870       0.002
   0.90000000  0.65217391  0.88043478       0.002
   0.95000000  0.64130435  0.72826087       0.002
   0.00000000  0.63043478  0.57608696       0.001
   0.05000000  0.61956522  0.42391304       0.002
   0.10000000  0.60869565  0.27173913       0.002
   0.15000000  0.59782609  0.11956522       0.002
   0.20000000  0.58695652  0.96739130       0.002
   0.25000000  0.57608696  0.81521739       0.002
   0.35000000  0.55434783  0.51086957       0.002
   0.40000000  0.54347826  0.35869565       0.002
   0.45000000  0.53260870  0.20652174       0.002
   0.50000000  0.52173913  0.05434783       0.001
   0.55000000  0.51086957  0.90217391       0.002
   0.60000000  0.50000000  0.75000000       0.002
   0.65000000  0.48913043  0.59782609       0.002
   0.70000000  0.47826087  0.44565217       0.002
   0.75000000  0.46739130  0.29347826       0.002
   0.85000000  0.44565217  0.98913043       0.002
   0.90000000  0.43478261  0.83695652       0.002
   0.95000000  0.42391304  0.68478261       0.002
   0.00000000  0.41304348  0.53260870       0.001
   0.05000000  0.40217391  0.38043478       0.002
   0.10000000  0.39130435  0.22826087       0.002
   0.15000000  0.38043478  0.07608696       0.002
   0.20000000  0.36956522  0.92391304       0.002
   0.25000000  0.35869565  0.77173913       0.002
   0.35000000  0.33695652  0.46739130       0.002
   0.40000000  0.32608696  0.31521739       0.002
   0.45000000  0.31521739  0.16304348       0.002
   0.50000000  0.30434783  0.01086957       0.001
   0.55000000  0.29347826  0.85869565       0.002
   0.60000000  0.28260870  0.70652174       0.002
   0.65000000  0.27173913  0.55434783       0.002
   0.70000000  0.26086957  0.40217391       0.002
   0.75000000  0.25000000  0.25000000       0.002
   0.85000000  0.22826087  0.94565217       0.002
   0.90000000  0.21739130  0.79347826       0.002
   0.95000000  0.20652174  0.64130435       0.002
   0.00000000  0.19565217  0.48913043       0.001
   0.05000000  0.18478261  0.33695652       0.002
   0.10000000  0.17391304  0.18478261       0.002
   0.15000000  0.16304348  0.03260870       0.002
   0.20000000  0.15217391  0.88043478       0.002
   0.25000000  0.14130435  0.72826087       0.002
   0.35000000  0.11956522  0.42391304       0.002
   0.40000000  0.10869565  0.27173913       0.002
   0.45000000  0.09782609  0.11956522       0.002
   0.50000000  0.08695652  0.96739130       0.001
   0.55000000  0.07608696  0.81521739       0.002
   0.60000000  0.06521739  0.66304348       0.002
   0.65000000  0.05434783  0.51086957       0.002
   0.70000000  0.04347826  0.35869565       0.002
   0.75000000  0.03260870  0.20652174       0.002
   0.85000000  0.01086957  0.90217391       0.002
   0.90000000  0.00000000  0.75000000       0.002
   0.95000000  0.98913043  0.59782609       0.002
   0.00000000  0.97826087  0.44565217       0.001
   0.05000000  0.96739130  0.29347826       0.002
   0.10000000  0.95652174  0.14130435       0.002
   0.15000000  0.94565217  0.98913043       0.002
   0.20000000  0.93478261  0.83695652       0.002
   0.25000000  0.92391304  0.68478261       0.002
   0.35000000  0.90217391  0.38043478       0.002
   0.40000000  0.89130435  0.22826087       0.002
   0.45000000  0.88043478  0.07608696       0.002
   0.50000000  0.86956522  0.92391304       0.001
   0.55000000  0.85869565  0.77173913       0.002
   0.65000000  0.83695652  0.46739130       0.002
   0.70000000  0.82608696  0.31521739       0.002
   0.75000000  0.81521739  0.16304348       0.002
   0.85000000  0.79347826  0.85869565       0.002
   0.90000000  0.78260870  0.70652174       0.002
   0.95000000  0.77173913  0.55434783       0.002
   0.00000000  0.76086957  0.40217391       0.001
   0.05000000  0.75000000  0.25000000       0.002
   0.15000000  0.72826087  0.94565217       0.002
   0.20000000  0.71739130  0.79347826       0.002
   0.25000000  0.70652174  0.64130435       0.002
   0.35000000  0.68478261  0.33695652       0.002
   0.40000000  0.67391304  0.18478261       0.002
   0.45000000  0.66304348  0.03260870       0.002
   0.50000000  0.65217391  0.88043478       0.001
   0.55000000  0.64130435  0.72826087       0.002
   0.65000000  0.61956522  0.42391304       0.002
   0.70000000  0.60869565  0.27173913       0.002
   0.75000000  0.59782609  0.11956522       0.002
   0.85000000  0.57608696  0.81521739       0.002
   0.90000000  0.56521739  0.66304348       0.002
   0.95000000  0.55434783  0.51086957       0.002
   0.00000000  0.54347826  0.35869565       0.001
   0.05000000  0.53260870  0.20652174       0.002
   0.15000000  0.51086957  0.90217391       0.002
   0.20000000  0.50000000  0.75000000       0.002
   0.25000000  0.48913043  0.59782609       0.002
   0.35000000  0.46739130  0.29347826       0.002
   0.40000000  0.45652174  0.14130435       0.002
   0.45000000  0.44565217  0.98913043       0.002
   0.50000000  0.43478261  0.83695652       0.001
   0.55000000  0.42391304  0.68478261       0.002
   0.65000000  0.40217391  0.38043478       0.002
   0.70000000  0.39130435  0.22826087       0.002
   0.75000000  0.38043478  0.07608696       0.002
   0.85000000  0.35869565  0.77173913       0.002
   0.90000000  0.34782609  0.61956522       0.002
   0.95000000  0.33695652  0.46739130       0.002
   0.00000000  0.32608696  0.31521739       0.001
   0.05000000  0.31521739  0.16304348       0.002
   0.15000000  0.29347826  0.85869565       0.002
   0.20000000  0.28260870  0.70652174       0.002
   0.25000000  0.27173913  0.55434783       0.002
   0.35000000  0.25000000  0.25000000       0.002
   0.40000000  0.23913043  0.09782609       0.002
   0.45000000  0.22826087  0.94565217       0.002
   0.50000000  0.21739130  0.79347826       0.001
   0.55000000  0.20652174  0.64130435       0.002
   0.65000000  0.18478261  0.33695652       0.002
   0.70000000  0.17391304  0.18478261       0.002
   0.75000000  0.16304348  0.03260870       0.002
   0.85000000  0.14130435  0.72826087       0.002
   0.90000000  0.13043478  0.57608696       0.002
   0.95000000  0.11956522  0.42391304       0.002
   0.00000000  0.10869565  0.27173913       0.001
   0.05000000  0.09782609  0.11956522       0.002
   0.15000000  0.07608696  0.81521739       0.002
   0.20000000  0.06521739  0.66304348       0.002
   0.25000000  0.05434783  0.51086957       0.002
   0.35000000  0.03260870  0.20652174       0.002
   0.40000000  0.02173913  0.05434783       0.002
   0.45000000  0.01086957  0.90217391       0.002
   0.50000000  0.00000000  0.75000000       0.001
   0.55000000  0.98913043  0.59782609       0.002
   0.65000000  0.96739130  0.29347826       0.002
   0.70000000  0.95652174  0.14130435       0.002
   0.75000000  0.94565217  0.98913043       0.002
   0.85000000  0.92391304  0.68478261       0.002
   0.95000000  0.90217391  0.38043478       0.002
   0.00000000  0.89130435  0.22826087       0.001
   0.05000000  0.88043478  0.07608696       0.002
   0.15000000  0.85869565  0.77173913       0.002
   0.20000000  0.84782609  0.61956522       0.002
   0.25000000  0.83695652  0.46739130       0.002
   0.35000000  0.81521739  0.16304348       0.002
   0.45000000  0.79347826  0.85869565       0.002
   0.50000000  0.78260870  0.70652174       0.001
   0.55000000  0.77173913  0.55434783       0.002
   0.65000000  0.75000000  0.25000000       0.002
   0.70000000  0.73913043  0.09782609       0.002
   0.75000000  0.72826087  0.94565217       0.002
   0.85000000  0.70652174  0.64130435       0.002
   0.95000000  0.68478261  0.33695652       0.002
   0.00000000  0.67391304  0.18478261       0.001
   0.05000000  0.66304348  0.03260870       0.002
   0.15000000  0.64130435  0.72826087       0.002
   0.20000000  0.63043478  0.57608696       0.002
   0.25000000  0.61956522  0.42391304       0.002
   0.35000000  0.59782609  0.11956522       0.002
   0.45000000  0.57608696  0.81521739       0.002
   0.50000000  0.56521739  0.66304348       0.001
   0.55000000  0.55434783  0.51086957       0.002
   0.65000000  0.53260870  0.20652174       0.002
   0.70000000  0.52173913  0.05434783       0.002
   0.75000000  0.51086957  0.90217391       0.002
   0.85000000  0.48913043  0.59782609       0.002
   0.95000000  0.46739130  0.29347826       0.002
   0.00000000  0.45652174  0.14130435       0.001
   0.05000000  0.44565217  0.98913043       0.002
   0.15000000  0.42391304  0.68478261       0.002
   0.20000000  0.41304348  0.53260870       0.002
   0.25000000  0.40217391  0.38043478       0.002
   0.35000000  0.38043478  0.07608696       0.002
   0.45000000  0.35869565  0.77173913       0.002
   0.50000000  0.34782609  0.61956522       0.001
   0.55000000  0.33695652  0.46739130       0.002
   0.65000000  0.31521739  0.16304348       0.002
   0.70000000  0.30434783  0.01086957       0.002
   0.75000000  0.29347826  0.85869565       0.002
   0.85000000  0.27173913  0.55434783       0.002
   0.95000000  0.25000000  0.25000000       0.002
   0.00000000  0.23913043  0.09782609       0.001
   0.05000000  0.22826087  0.94565217       0.002
   0.15000000  0.20652174  0.64130435       0.002
   0.20000000  0.19565217  0.48913043       0.002
   0.25000000  0.18478261  0.33695652       0.002
   0.35000000  0.16304348  0.03260870       0.002
   0.45000000  0.14130435  0.72826087       0.002
   0.50000000  0.13043478  0.57608696       0.001
   0.55000000  0.11956522  0.42391304       0.002
   0.65000000  0.09782609  0.11956522       0.002
   0.70000000  0.08695652  0.96739130       0.002
   0.75000000  0.07608696  0.81521739       0.002
   0.85000000  0.05434783  0.51086957       0.002
   0.95000000  0.03260870  0.20652174       0.002
   0.00000000  0.02173913  0.05434783       0.001
   0.05000000  0.01086957  0.90217391       0.002
   0.15000000  0.98913043  0.59782609       0.002
   0.20000000  0.97826087  0.44565217       0.002
   0.25000000  0.96739130  0.29347826       0.002
   0.35000000  0.94565217  0.98913043       0.002
   0.45000000  0.92391304  0.68478261       0.002
   0.50000000  0.91304348  0.53260870       0.001
   0.55000000  0.90217391  0.38043478       0.002
   0.65000000  0.88043478  0.07608696       0.002
   0.75000000  0.85869565  0.77173913       0.002
   0.85000000  0.83695652  0.46739130       0.002
   0.95000000  0.81521739  0.16304348       0.002
   0.00000000  0.80434783  0.01086957       0.001
   0.05000000  0.79347826  0.85869565       0.002
   0.15000000  0.77173913  0.55434783       0.002
   0.25000000  0.75000000  0.25000000       0.002
   0.35000000  0.72826087  0.94565217       0.002
   0.45000000  0.70652174  0.64130435       0.002
   0.50000000  0.69565217  0.48913043       0.001
   0.55000000  0.68478261  0.33695652       0.002
   0.65000000  0.66304348  0.03260870       0.002
   0.75000000  0.64130435  0.72826087       0.002
   0.85000000  0.61956522  0.42391304       0.002
   0.95000000  0.59782609  0.11956522       0.002
   0.00000000  0.58695652  0.96739130       0.001
   0.05000000  0.57608696  0.81521739       0.002
   0.15000000  0.55434783  0.51086957       0.002
   0.25000000  0.53260870  0.20652174       0.002
   0.35000000  0.51086957  0.90217391       0.002
   0.45000000  0.48913043  0.59782609       0.002
   0.50000000  0.47826087  0.44565217       0.001
   0.55000000  0.46739130  0.29347826       0.002
   0.65000000  0.44565217  0.98913043       0.002
   0.75000000  0.42391304  0.68478261       0.002
   0.85000000  0.40217391  0.38043478       0.002
   0.95000000  0.38043478  0.07608696       0.002
   0.00000000  0.36956522  0.92391304       0.001
   0.05000000  0.35869565  0.77173913       0.002
   0.15000000  0.33695652  0.46739130       0.002
   0.25000000  0.31521739  0.16304348       0.002
   0.35000000  0.29347826  0.85869565       0.002
   0.45000000  0.27173913  0.55434783       0.002
   0.50000000  0.26086957  0.40217391       0.001
   0.55000000  0.25000000  0.25000000       0.002
   0.65000000  0.22826087  0.94565217       0.002
   0.75000000  0.20652174  0.64130435       0.002
   0.85000000  0.18478261  0.33695652       0.002
   0.95000000  0.16304348  0.03260870       0.002
   0.00000000  0.15217391  0.88043478       0.001
   0.05000000  0.14130435  0.72826087       0.002
   0.15000000  0.11956522  0.42391304       0.002
   0.25000000  0.09782609  0.11956522       0.002
   0.35000000  0.07608696  0.81521739       0.002
   0.45000000  0.05434783  0.51086957       0.002
   0.50000000  0.04347826  0.35869565       0.001
   0.55000000  0.03260870  0.20652174       0.002
   0.65000000  0.01086957  0.90217391       0.002
   0.75000000  0.98913043  0.59782609       0.002
   0.85000000  0.96739130  0.29347826       0.002
   0.00000000  0.95652174  0.64130435       0.001
   0.10000000  0.93478261  0.33695652       0.002
   0.20000000  0.91304348  0.03260870       0.002
   0.30000000  0.89130435  0.72826087       0.002
   0.40000000  0.86956522  0.42391304       0.002
   0.50000000  0.84782609  0.11956522       0.001
   0.60000000  0.82608696  0.81521739       0.002
   0.70000000  0.80434783  0.51086957       0.002
   0.80000000  0.78260870  0.20652174       0.002
   0.90000000  0.76086957  0.90217391       0.002
   0.00000000  0.73913043  0.59782609       0.001
   0.10000000  0.71739130  0.29347826       0.002
   0.20000000  0.69565217  0.98913043       0.002
   0.30000000  0.67391304  0.68478261       0.002
   0.40000000  0.65217391  0.38043478       0.002
   0.50000000  0.63043478  0.07608696       0.001
   0.60000000  0.60869565  0.77173913       0.002
   0.70000000  0.58695652  0.46739130       0.002
   0.80000000  0.56521739  0.16304348       0.002
   0.90000000  0.54347826  0.85869565       0.002
   0.00000000  0.52173913  0.55434783       0.001
   0.10000000  0.50000000  0.25000000       0.002
   0.20000000  0.47826087  0.94565217       0.002
   0.30000000  0.45652174  0.64130435       0.002
   0.40000000  0.43478261  0.33695652       0.002
   0.50000000  0.41304348  0.03260870       0.001
   0.60000000  0.39130435  0.72826087       0.002
   0.70000000  0.36956522  0.42391304       0.002
   0.80000000  0.34782609  0.11956522       0.002
   0.90000000  0.32608696  0.81521739       0.002
   0.00000000  0.30434783  0.51086957       0.001
   0.10000000  0.28260870  0.20652174       0.002
   0.20000000  0.26086957  0.90217391       0.002
   0.30000000  0.23913043  0.59782609       0.002
   0.40000000  0.21739130  0.29347826       0.002
   0.50000000  0.19565217  0.98913043       0.001
   0.60000000  0.17391304  0.68478261       0.002
   0.70000000  0.15217391  0.38043478       0.002
   0.80000000  0.13043478  0.07608696       0.002
   0.90000000  0.10869565  0.77173913       0.002
   1.00000000  0.08695652  0.46739130       0.001
   0.10000000  0.06521739  0.16304348       0.002
   0.20000000  0.04347826  0.85869565       0.002
   0.30000000  0.02173913  0.55434783       0.002
   0.40000000  0.00000000  0.25000000       0.002
   0.50000000  0.97826087  0.94565217       0.001
   0.60000000  0.95652174  0.64130435       0.002
   0.70000000  0.93478261  0.33695652       0.002
   0.90000000  0.89130435  0.72826087       0.002
   0.00000000  0.86956522  0.42391304       0.001
   0.10000000  0.84782609  0.11956522       0.002
   0.20000000  0.82608696  0.81521739       0.002
   0.40000000  0.78260870  0.20652174       0.002
   0.50000000  0.76086957  0.90217391       0.001
   0.60000000  0.73913043  0.59782609       0.002
   0.70000000  0.71739130  0.29347826       0.002
   0.90000000  0.67391304  0.68478261       0.002
   0.00000000  0.65217391  0.38043478       0.001
   0.10000000  0.63043478  0.07608696       0.002
   0.20000000  0.60869565  0.77173913       0.002
   0.40000000  0.56521739  0.16304348       0.002
   0.50000000  0.54347826  0.85869565       0.001
   0.60000000  0.52173913  0.55434783       0.002
   0.70000000  0.50000000  0.25000000       0.002
   0.90000000  0.45652174  0.64130435       0.002
   0.00000000  0.43478261  0.33695652       0.001
   0.10000000  0.41304348  0.03260870       0.002
   0.20000000  0.39130435  0.72826087       0.002
   0.40000000  0.34782609  0.11956522       0.002
   0.50000000  0.32608696  0.81521739       0.001
   0.60000000  0.30434783  0.51086957       0.002
   0.70000000  0.28260870  0.20652174       0.002
   0.90000000  0.23913043  0.59782609       0.002
   1.00000000  0.21739130  0.29347826       0.001
   0.10000000  0.19565217  0.98913043       0.002
   0.20000000  0.17391304  0.68478261       0.002
   0.40000000  0.13043478  0.07608696       0.002
   0.50000000  0.10869565  0.77173913       0.001
   0.60000000  0.08695652  0.46739130       0.002
   0.70000000  0.06521739  0.16304348       0.002
   0.90000000  0.02173913  0.55434783       0.002
   0.00000000  0.00000000  0.25000000       0.001
   0.10000000  0.97826087  0.94565217       0.002
   0.20000000  0.95652174  0.64130435       0.002
   0.40000000  0.91304348  0.03260870       0.002
   0.50000000  0.89130435  0.72826087       0.001
   0.70000000  0.84782609  0.11956522       0.002
   0.90000000  0.80434783  0.51086957       0.002
   0.00000000  0.78260870  0.20652174       0.001
   0.20000000  0.73913043  0.59782609       0.002
   0.40000000  0.69565217  0.98913043       0.002
   0.50000000  0.67391304  0.68478261       0.001
   0.70000000  0.63043478  0.07608696       0.002
   0.90000000  0.58695652  0.46739130       0.002
   0.00000000  0.56521739  0.16304348       0.001
   0.20000000  0.52173913  0.55434783       0.002
   0.40000000  0.47826087  0.94565217       0.002
   0.50000000  0.45652174  0.64130435       0.001
   0.70000000  0.41304348  0.03260870       0.002
   0.90000000  0.36956522  0.42391304       0.002
   0.00000000  0.34782609  0.11956522       0.001
   0.20000000  0.30434783  0.51086957       0.002
   0.40000000  0.26086957  0.90217391       0.002
   0.50000000  0.23913043  0.59782609       0.001
   0.70000000  0.19565217  0.98913043       0.002
   0.90000000  0.15217391  0.38043478       0.002
   0.00000000  0.13043478  0.07608696       0.001
   0.20000000  0.08695652  0.46739130       0.002
   0.40000000  0.04347826  0.85869565       0.002
   0.50000000  0.02173913  0.55434783       0.001
   0.70000000  0.97826087  0.94565217       0.002
   0.00000000  0.91304348  0.03260870       0.001
   0.20000000  0.86956522  0.42391304       0.002
   0.50000000  0.80434783  0.51086957       0.001
   0.70000000  0.76086957  0.90217391       0.002
   0.00000000  0.69565217  0.98913043       0.001
   0.20000000  0.65217391  0.38043478       0.002
   0.50000000  0.58695652  0.46739130       0.001
   0.70000000  0.54347826  0.85869565       0.002
   0.00000000  0.47826087  0.94565217       0.001
   0.20000000  0.43478261  0.33695652       0.002
   0.50000000  0.36956522  0.42391304       0.001
   0.70000000  0.32608696  0.81521739       0.002
   0.00000000  0.26086957  0.90217391       0.001
   0.20000000  0.21739130  0.29347826       0.002
   0.50000000  0.15217391  0.38043478       0.001
   0.70000000  0.10869565  0.77173913       0.002
   0.00000000  0.04347826  0.85869565       0.001
   0.20000000  0.00000000  0.25000000       0.002
   0.50000000  0.93478261  0.33695652       0.001
   0.00000000  0.82608696  0.81521739       0.001
   0.50000000  0.71739130  0.29347826       0.001
   0.00000000  0.60869565  0.77173913       0.001
   0.50000000  0.50000000  0.25000000       0.001
   0.00000000  0.39130435  0.72826087       0.001
   0.50000000  0.28260870  0.20652174       0.001
   0.00000000  0.17391304  0.68478261       0.001
   0.50000000  0.06521739  0.16304348       0.001
 
 position of ions in fractional coordinates (direct lattice) 
   0.00000000  0.00000000  0.00000000
   0.50000000  0.00000000  0.50000000
   0.00000000  0.50000000  0.50000000
   0.50000000  0.50000000  0.00000000
 
 position of ions in cartesian coordinates  (Angst):
   0.00000000  0.00000000  0.00000000
   1.89500000  0.00000000  1.89500000
   0.00000000  0.00000000  3.79000000
   0.00000000  1.89500000  1.89500000
 


--------------------------------------------------------------------------------------------------------


 k-point  1 :   0.9500 0.9457 0.9891  plane waves:     544
 k-point  2 :   1.0000 0.9348 0.8370  plane waves:     546
 k-point  3 :   0.0500 0.9239 0.6848  plane waves:     548
 k-point  4 :   0.1000 0.9130 0.5326  plane waves:     551
 k-point  5 :   0.1500 0.9022 0.3804  plane waves:     547
 k-point  6 :   0.2000 0.8913 0.2283  plane waves:     537
 k-point  7 :   0.2500 0.8804 0.0761  plane waves:     535
 k-point  8 :   0.3000 0.8696 0.9239  plane waves:     542
 k-point  9 :   0.3500 0.8587 0.7717  plane waves:     533
 k-point 10 :   0.4000 0.8478 0.6196  plane waves:     535
 k-point 11 :   0.4500 0.8370 0.4674  plane waves:     538
 k-point 12 :   0.5000 0.8261 0.3152  plane waves:     536
 k-point 13 :   0.5500 0.8152 0.1630  plane waves:     543
 k-point 14 :   0.6000 0.8043 0.0109  plane waves:     544
 k-point 15 :   0.6500 0.7935 0.8587  plane waves:     534
 k-point 16 :   0.7000 0.7826 0.7065  plane waves:     540
 k-point 17 :   0.7500 0.7717 0.5543  plane waves:     547
 k-point 18 :   0.8000 0.7609 0.4022  plane waves:     548
 k-point 19 :   0.8500 0.7500 0.2500  plane waves:     546
 k-point 20 :   0.9000 0.7391 0.0978  plane waves:     548
 k-point 21 :   0.9500 0.7283 0.9457  plane waves:     546
 k-point 22 :   0.0000 0.7174 0.7935  plane waves:     540
 k-point 23 :   0.0500 0.7065 0.6413  plane waves:     539
 k-point 24 :   0.1000 0.6957 0.4891  plane waves:     546
 k-point 25 :   0.1500 0.6848 0.3370  plane waves:     550
 k-point 26 :   0.2000 0.6739 0.1848  plane waves:     545
 k-point 27 :   0.2500 0.6630 0.0326  plane waves:     543
 k-point 28 :   0.3000 0.6522 0.8804  plane waves:     547
 k-point 29 :   0.3500 0.6413 0.7283  plane waves:     541
 k-point 30 :   0.4000 0.6304 0.5761  plane waves:     541
 k-point 31 :   0.4500 0.6196 0.4239  plane waves:     533
 k-point 32 :   0.5000 0.6087 0.2717  plane waves:     528
 k-point 33 :   0.5500 0.5978 0.1196  plane waves:     536
 k-point 34 :   0.6000 0.5870 0.9674  plane waves:     535
 k-point 35 :   0.6500 0.5761 0.8152  plane waves:     542
 k-point 36 :   0.7000 0.5652 0.6630  plane waves:     544
 k-point 37 :   0.7500 0.5543 0.5109  plane waves:     547
 k-point 38 :   0.8000 0.5435 0.3587  plane waves:     548
 k-point 39 :   0.8500 0.5326 0.2065  plane waves:     550
 k-point 40 :   0.9000 0.5217 0.0543  plane waves:     550
 k-point 41 :   0.9500 0.5109 0.9022  plane waves:     553
 k-point 42 :   0.0000 0.5000 0.7500  plane waves:     550
 k-point 43 :   0.0500 0.4891 0.5978  plane waves:     545
[...]
     14       8.7864     -0.00000
     15       9.1171     -0.00000
     16       9.4277     -0.00000

 k-point   491 :       0.7000    0.3261    0.8152
  band No.  band energies     occupation 
      1       2.5589      2.00000
      2       3.6984      2.00000
      3       4.2512      2.00000
      4       4.4129      2.00000
      5       4.9619      2.00000
      6       5.0963      2.00000
      7       5.5280      2.00000
      8       5.6332      2.00000
      9       5.8008      2.00000
     10       5.8857      2.00000
     11       6.1480      2.00000
     12       6.9594      2.06867
     13       7.1628      1.48157
     14       7.9644     -0.00000
     15       8.0962     -0.00000
     16       8.3566     -0.00000

 k-point   492 :       0.0000    0.2609    0.9022
  band No.  band energies     occupation 
      1       0.1760      2.00000
      2       2.6140      2.00000
      3       3.2010      2.00000
      4       3.7185      2.00000
      5       4.3925      2.00000
      6       5.7258      2.00000
      7       5.9881      2.00000
      8       6.2307      2.00000
      9       6.3706      2.00000
     10       6.4317      2.00000
     11       6.5460      2.00002
     12       7.0121      2.05941
     13       7.3030      0.37598
     14       7.4332     -0.05966
     15       7.7689     -0.00077
     16       8.2524     -0.00000

 k-point   493 :       0.2000    0.2174    0.2935
  band No.  band energies     occupation 
      1       1.1223      2.00000
      2       3.5731      2.00000
      3       3.9390      2.00000
      4       4.1298      2.00000
      5       4.6508      2.00000
      6       5.0651      2.00000
      7       5.3030      2.00000
      8       5.6700      2.00000
      9       6.1718      2.00000
     10       6.5634      2.00003
     11       6.7826      2.00796
     12       6.8061      2.01215
     13       7.1195      1.75659
     14       7.2590      0.69675
     15       7.5588     -0.03873
     16       8.5069     -0.00000

 k-point   494 :       0.5000    0.1522    0.3804
  band No.  band energies     occupation 
      1       3.0359      2.00000
      2       3.2156      2.00000
      3       3.5254      2.00000
      4       4.1290      2.00000
      5       4.3869      2.00000
      6       4.5430      2.00000
      7       5.7063      2.00000
      8       5.7489      2.00000
      9       6.2278      2.00000
     10       6.4035      2.00000
     11       6.9702      2.07051
     12       7.2817      0.52287
     13       7.5774     -0.03088
     14       7.7678     -0.00079
     15       7.9253     -0.00001
     16       8.9094     -0.00000

 k-point   495 :       0.7000    0.1087    0.7717
  band No.  band energies     occupation 
      1       2.0551      2.00000
      2       4.1732      2.00000
      3       4.4043      2.00000
      4       4.7006      2.00000
      5       5.0329      2.00000
      6       5.1464      2.00000
      7       5.2163      2.00000
      8       5.3564      2.00000
      9       5.4793      2.00000
     10       5.8805      2.00000
     11       6.4050      2.00000
     12       6.8445      2.02242
     13       7.1977      1.20849
     14       7.6378     -0.01239
     15       7.9829     -0.00000
     16       8.5861     -0.00000

 k-point   496 :       0.0000    0.0435    0.8587
  band No.  band energies     occupation 
      1      -0.4411      2.00000
      2       2.7612      2.00000
      3       2.9337      2.00000
      4       3.3253      2.00000
      5       4.2040      2.00000
      6       6.0306      2.00000
      7       6.0351      2.00000
      8       6.3223      2.00000
      9       6.3434      2.00000
     10       6.6011      2.00010
     11       7.0295      2.04219
     12       7.2301      0.93571
     13       7.3166      0.29323
     14       7.6072     -0.02031
     15       8.2967     -0.00000
     16       8.3838     -0.00000

 k-point   497 :       0.2000    0.0000    0.2500
  band No.  band energies     occupation 
      1       0.9031      2.00000
      2       3.6035      2.00000
      3       3.9762      2.00000
      4       4.1432      2.00000
      5       4.7671      2.00000
      6       5.3574      2.00000
      7       5.5575      2.00000
      8       5.6425      2.00000
      9       6.1616      2.00000
     10       6.3088      2.00000
     11       6.7496      2.00415
     12       6.9346      2.06046
     13       7.1096      1.80714
     14       7.3588      0.09352
     15       7.5616     -0.03750
     16       8.1996     -0.00000

 k-point   498 :       0.5000    0.9348    0.3370
  band No.  band energies     occupation 
      1       3.3610      2.00000
      2       3.8264      2.00000
      3       3.9704      2.00000
      4       4.4280      2.00000
      5       4.6600      2.00000
      6       4.9441      2.00000
      7       5.0791      2.00000
      8       5.2916      2.00000
      9       5.8231      2.00000
     10       6.2253      2.00000
     11       6.5157      2.00001
     12       6.7339      2.00298
     13       7.3401      0.17109
     14       8.0487     -0.00000
     15       8.1277     -0.00000
     16       8.6398     -0.00000

 k-point   499 :       0.0000    0.8261    0.8152
  band No.  band energies     occupation 
      1      -0.2719      2.00000
      2       2.8153      2.00000
      3       3.1046      2.00000
      4       3.3131      2.00000
      5       4.2717      2.00000
      6       5.8798      2.00000
      7       6.1214      2.00000
      8       6.3316      2.00000
      9       6.3722      2.00000
     10       6.5433      2.00002
     11       6.6299      2.00023
     12       7.2933      0.44055
     13       7.3223      0.26101
     14       7.4243     -0.05202
     15       8.2250     -0.00000
     16       8.4376     -0.00000

 k-point   500 :       0.5000    0.7174    0.2935
  band No.  band energies     occupation 
      1       3.0497      2.00000
      2       3.2924      2.00000
      3       3.6255      2.00000
      4       4.3046      2.00000
      5       4.4590      2.00000
      6       4.7392      2.00000
      7       5.5604      2.00000
      8       5.6252      2.00000
      9       6.3801      2.00000
     10       6.4602      2.00000
     11       6.7355      2.00308
     12       7.2046      1.15078
     13       7.6309     -0.01393
     14       7.8241     -0.00018
     15       8.3027     -0.00000
     16       9.2808     -0.00000

 k-point   501 :       0.0000    0.6087    0.7717
  band No.  band energies     occupation 
      1       0.6310      2.00000
      2       2.7384      2.00000
      3       3.3676      2.00000
      4       3.7978      2.00000
      5       4.6367      2.00000
      6       5.3935      2.00000
      7       5.7380      2.00000
      8       5.9156      2.00000
      9       6.3927      2.00000
     10       6.5129      2.00001
     11       6.5246      2.00001
     12       6.7024      2.00146
     13       7.3688      0.05919
     14       7.5058     -0.06230
     15       7.7014     -0.00366
     16       8.1827     -0.00000

 k-point   502 :       0.5000    0.5000    0.2500
  band No.  band energies     occupation 
      1       2.6185      2.00000
      2       3.1497      2.00000
      3       3.4788      2.00000
      4       3.8614      2.00000
      5       4.2008      2.00000
      6       4.4972      2.00000
      7       6.0287      2.00000
      8       6.0534      2.00000
      9       6.5169      2.00001
     10       6.7790      2.00744
     11       7.0143      2.05781
     12       7.1432      1.61628
     13       7.7293     -0.00199
     14       8.3878     -0.00000
     15       8.5225     -0.00000
     16       9.1476     -0.00000

 k-point   503 :       0.0000    0.3913    0.7283
  band No.  band energies     occupation 
      1       1.4306      2.00000
      2       2.3778      2.00000
      3       3.2386      2.00000
      4       4.3391      2.00000
      5       4.7586      2.00000
      6       5.1947      2.00000
      7       5.5736      2.00000
      8       5.6166      2.00000
      9       6.2999      2.00000
     10       6.3808      2.00000
     11       6.4517      2.00000
     12       6.5992      2.00010
     13       7.0781      1.93457
     14       7.2436      0.82234
     15       8.0075     -0.00000
     16       8.4339     -0.00000

 k-point   504 :       0.5000    0.2826    0.2065
  band No.  band energies     occupation 
      1       2.8612      2.00000
      2       3.2791      2.00000
      3       3.4486      2.00000
      4       4.0399      2.00000
      5       4.3415      2.00000
      6       4.5717      2.00000
      7       5.9270      2.00000
      8       6.1771      2.00000
      9       6.4805      2.00000
     10       6.6796      2.00084
     11       6.7355      2.00308
     12       6.8426      2.02181
     13       7.7339     -0.00179
     14       7.8300     -0.00015
     15       8.0052     -0.00000
     16       8.9023     -0.00000

 k-point   505 :       0.0000    0.1739    0.6848
  band No.  band energies     occupation 
      1       0.6596      2.00000
      2       2.7581      2.00000
      3       3.1290      2.00000
      4       4.1312      2.00000
      5       4.5317      2.00000
      6       5.6322      2.00000
      7       5.7312      2.00000
      8       5.9813      2.00000
      9       6.2157      2.00000
     10       6.3428      2.00000
     11       6.5806      2.00006
     12       6.6154      2.00015
     13       7.2093      1.11145
     14       7.4335     -0.05983
     15       7.7357     -0.00172
     16       8.2807     -0.00000

 k-point   506 :       0.5000    0.0652    0.1630
  band No.  band energies     occupation 
      1       3.4813      2.00000
      2       3.6743      2.00000
      3       3.8220      2.00000
      4       4.5479      2.00000
      5       4.7735      2.00000
      6       4.8867      2.00000
      7       5.5398      2.00000
      8       5.6671      2.00000
      9       5.7432      2.00000
     10       6.0135      2.00000
     11       6.4881      2.00000
     12       6.7684      2.00607
     13       7.2668      0.63521
     14       7.6138     -0.01837
     15       7.7862     -0.00050
     16       8.6348     -0.00000


--------------------------------------------------------------------------------------------------------


 soft charge-density along one line, spin component           1
         0         1         2         3         4         5         6         7         8         9
 total charge-density along one line
 
 pseudopotential strength for first ion, spin component:           1
 -1.814   0.006   0.047  -0.006  -0.000  -2.408   0.006   0.046
  0.006  -1.788  -0.004  -0.022   0.007   0.006  -2.383  -0.004
  0.047  -0.004  -1.797   0.004  -0.000   0.046  -0.004  -2.392
 -0.006  -0.022   0.004  -1.788   0.007  -0.006  -0.021   0.004
 -0.000   0.007  -0.000   0.007  -1.774  -0.000   0.007  -0.000
 -2.408   0.006   0.046  -0.006  -0.000  -2.944   0.005   0.044
  0.006  -2.383  -0.004  -0.021   0.007   0.005  -2.921  -0.004
  0.046  -0.004  -2.392   0.004  -0.000   0.044  -0.004  -2.928
 -0.006  -0.021   0.004  -2.383   0.007  -0.005  -0.020   0.004
 -0.000   0.007  -0.000   0.007  -2.369  -0.000   0.007  -0.000
  0.010   0.002  -0.001  -0.002   0.000   0.009   0.002  -0.001
  0.017   0.003  -0.003  -0.003   0.000   0.017   0.003  -0.002
 -0.000   0.000  -0.000   0.000  -0.000  -0.000   0.000  -0.000
  0.000   0.000  -0.000  -0.000  -0.000   0.000   0.000  -0.000
  0.000   0.000   0.000   0.000  -0.000   0.000   0.000   0.000
 -0.000   0.000  -0.000   0.000  -0.000  -0.000   0.000  -0.000
  0.000   0.000  -0.000  -0.000  -0.000   0.000   0.000  -0.000
  0.000   0.000   0.000  -0.000  -0.000   0.000   0.000   0.000
 total augmentation occupancy for first ion, spin component:           1
  1.437  -0.080   0.055   0.080   0.000  -0.406   0.088   0.014  -0.088   0.000  -0.052   0.004   0.000   0.000   0.000   0.000
 -0.080   1.572  -0.010   0.037   0.044   0.088  -0.437  -0.018   0.026   0.010  -0.159   0.019   0.000   0.000   0.000   0.000
  0.055  -0.010   2.187   0.010   0.000   0.018  -0.017  -0.908   0.017   0.000  -0.057   0.015   0.000   0.000   0.000   0.000
  0.080   0.037   0.010   1.572   0.044  -0.088   0.026   0.018  -0.437   0.010   0.159  -0.019   0.000   0.000   0.000   0.000
  0.000   0.044   0.000   0.044   2.201   0.000   0.010   0.000   0.010  -0.750   0.000   0.000   0.000   0.000   0.000   0.000
 -0.406   0.088   0.018  -0.088   0.000   0.842  -0.092  -0.012   0.092   0.000  -0.019  -0.000   0.000   0.000   0.000   0.000
  0.088  -0.437  -0.017   0.026   0.010  -0.092   0.905   0.044  -0.061  -0.064   0.161  -0.022   0.000   0.000   0.000   0.000
  0.014  -0.018  -0.908   0.018   0.000  -0.012   0.044   1.143  -0.044   0.000   0.103  -0.014   0.000   0.000   0.000   0.000
 -0.088   0.026   0.017  -0.437   0.010   0.092  -0.061  -0.044   0.905  -0.064  -0.161   0.022   0.000   0.000   0.000   0.000
  0.000   0.010   0.000   0.010  -0.750   0.000  -0.064   0.000  -0.064   0.923   0.000   0.000   0.000   0.000   0.000   0.000
 -0.052  -0.159  -0.057   0.159   0.000  -0.019   0.161   0.103  -0.161   0.000   2.119  -0.215   0.000   0.000   0.000   0.000
  0.004   0.019   0.015  -0.019   0.000  -0.000  -0.022  -0.014   0.022   0.000  -0.215   0.027   0.000   0.000   0.000   0.000
  0.000   0.000   0.000   0.000   0.000   0.000   0.000   0.000   0.000   0.000   0.000   0.000   0.284   0.020  -0.006  -0.024
  0.000   0.000   0.000   0.000   0.000   0.000   0.000   0.000   0.000   0.000   0.000   0.000   0.020   0.300  -0.020  -0.002
  0.000   0.000   0.000   0.000   0.000   0.000   0.000   0.000   0.000   0.000   0.000   0.000  -0.006  -0.020   0.284  -0.000
  0.000   0.000   0.000   0.000   0.000   0.000   0.000   0.000   0.000   0.000   0.000   0.000  -0.024  -0.002  -0.000   0.002
  0.000   0.000   0.000   0.000   0.000   0.000   0.000   0.000   0.000   0.000   0.000   0.000  -0.002  -0.025   0.002   0.000
  0.000   0.000   0.000   0.000   0.000   0.000   0.000   0.000   0.000   0.000   0.000   0.000  -0.000   0.002  -0.024   0.000


------------------------ aborting loop because EDIFF is reached ----------------------------------------


    CHARGE:  cpu time    6.9709: real time    6.9926
    FORLOC:  cpu time    0.0320: real time    0.0322
    FORNL :  cpu time   12.9250: real time   12.9635
    STRESS:  cpu time   22.1296: real time   22.2456
    FORCOR:  cpu time    0.2590: real time    0.2602
    FORHAR:  cpu time    0.0740: real time    0.0745
    MIXING:  cpu time    0.0130: real time    0.0133
    OFIELD:  cpu time    0.0000: real time    0.0001

  FORCE on cell =-STRESS in cart. coord.  units (eV):
  Direction    XX          YY          ZZ          XY          YZ          ZX
  --------------------------------------------------------------------------------------
  Alpha Z   134.33341   134.33341   134.33341
  Ewald    -462.24094  -462.24094  -474.29704    28.06183    13.20557   -13.20557
  Hartree    86.05923    86.05923    67.21955    26.36444     4.72149    -4.72149
  E(xc)    -117.09090  -117.09090  -116.74675    -0.08149     0.12689    -0.12689
  Local     -48.44351   -48.44351   -18.67910   -52.32696   -18.03760    18.03760
  n-local   -20.55817   -20.59511   -20.19787     0.02926     0.14741    -0.27910
  augment   199.69552   199.69552   199.74804    -0.80520    -0.07760     0.07812
  Kinetic   226.88522   226.73515   227.12997    -1.18867    -0.07333     0.26449
  Fock        0.00000     0.00000     0.00000     0.00000     0.00000     0.00000
  -------------------------------------------------------------------------------------
  Total      -1.45364    -1.45364    -1.48978     0.05312    -0.01721     0.01721
  in kB     -42.78095   -42.78095   -43.84440     1.56329    -0.50662     0.50661
  external pressure =      -43.14 kB  Pullay stress =        0.00 kB


 VOLUME and BASIS-vectors are now :
 -----------------------------------------------------------------------------
  energy-cutoff  :      267.97
  volume of cell :       54.44
      direct lattice vectors                 reciprocal lattice vectors
     1.895000000  1.895000000  0.000000000     0.263852243  0.263852243  0.000000000
    -1.895000000  1.895000000  3.790000000    -0.131926121  0.131926121  0.131926121
     1.895000000 -1.895000000  3.790000000     0.131926121 -0.131926121  0.131926121

  length of vectors
     2.679934701  4.641783063  4.641783063     0.373143420  0.228502745  0.228502745


 FORCES acting on ions
    electron-ion (+dipol)            ewald-force                    non-local-force                 convergence-correction
 -----------------------------------------------------------------------------------------------
   -.924E-14 0.276E-14 -.190E-13   0.782E-15 -.251E-14 -.761E-14   0.794E-22 -.265E-22 0.000E+00   0.471E-14 -.429E-14 -.167E-14
   -.662E-13 0.104E-12 -.172E-12   0.344E-14 -.251E-14 0.857E-15   0.000E+00 0.000E+00 0.000E+00   -.252E-14 0.175E-14 -.653E-14
   -.199E-14 -.111E-14 0.784E-13   -.317E-14 -.561E-15 0.480E-14   0.000E+00 0.000E+00 0.000E+00   -.614E-14 0.331E-14 -.632E-15
   0.193E-12 -.186E-12 0.135E-12   -.231E-14 0.825E-14 0.180E-14   -.265E-22 -.265E-22 0.000E+00   0.141E-14 -.169E-14 0.149E-14
 -----------------------------------------------------------------------------------------------
   0.115E-12 -.802E-13 0.223E-13   -.125E-14 0.266E-14 -.148E-15   0.529E-22 -.529E-22 0.000E+00   -.255E-14 -.913E-15 -.734E-14
 
 
 POSITION                                       TOTAL-FORCE (eV/Angst)
 -----------------------------------------------------------------------------------
      0.00000      0.00000      0.00000         0.000000      0.000000      0.000000
      1.89500      0.00000      1.89500         0.000000      0.000000      0.000000
      0.00000      0.00000      3.79000        -0.000000     -0.000000     -0.000000
      0.00000      1.89500      1.89500         0.000000      0.000000      0.000000
 -----------------------------------------------------------------------------------
    total drift:                                0.000000     -0.000000      0.000000


--------------------------------------------------------------------------------------------------------



  FREE ENERGIE OF THE ION-ELECTRON SYSTEM (eV)
  ---------------------------------------------------
  free  energy   TOTEN  =       -37.13403480 eV

  energy  without entropy=      -37.12503746  energy(sigma->0) =      -37.13103569
 


--------------------------------------------------------------------------------------------------------


    POTLOK:  cpu time    0.2910: real time    0.3207


--------------------------------------------------------------------------------------------------------


 writing wavefunctions
     LOOP+:  cpu time 1452.4722: real time 1459.4669
    4ORBIT:  cpu time    0.0000: real time    0.0000

 total amount of memory used by VASP MPI-rank0   242289. kBytes
=======================================================================

   base      :      30000. kBytes
   nonl-proj :     121572. kBytes
   fftplans  :       3092. kBytes
   grid      :       6215. kBytes
   one-center:         62. kBytes
   wavefun   :      81348. kBytes
 
  
  
 General timing and accounting informations for this job:
 ========================================================
  
                  Total CPU time used (sec):     1459.000
                            User time (sec):     1458.456
                          System time (sec):        0.544
                         Elapsed time (sec):     1466.546
  
                   Maximum memory used (kb):      247744.
                   Average memory used (kb):           0.
  
                          Minor page faults:        64088
                          Major page faults:            9
                 Voluntary context switches:          336
