 vasp.6.0.0 18Apr17 (build Mar 23 2018 09:59:13) complex                        
  
 executed on             LinuxIFC date 2018.06.18  11:00:52
 running on    1 total cores
 distrk:  each k-point on    1 cores,    1 groups
 distr:  one band on NCORES_PER_BAND=   1 cores,    1 groups


--------------------------------------------------------------------------------------------------------


 INCAR:
 POTCAR:    PAW_PBE Co 02Aug2007                  
 POTCAR:    PAW_PBE W 08Apr2002                   
 POTCAR:    PAW_PBE Co 02Aug2007                  
   VRHFIN =Co: d8 s1                                                            
   LEXCH  = PE                                                                  
   EATOM  =   813.3670 eV,   59.7808 Ry                                         
                                                                                
   TITEL  = PAW_PBE Co 02Aug2007                                                
   LULTRA =        F    use ultrasoft PP ?                                      
   IUNSCR =        1    unscreen: 0-lin 1-nonlin 2-no                           
   RPACOR =    2.000    partial core radius                                     
   POMASS =   58.933; ZVAL   =    9.000    mass and valenz                      
   RCORE  =    2.300    outmost cutoff radius                                   
   RWIGS  =    2.460; RWIGS  =    1.302    wigner-seitz radius (au A)           
   ENMAX  =  267.968; ENMIN  =  200.976 eV                                      
   RCLOC  =    1.203    cutoff for local pot                                    
   LCOR   =        T    correct aug charges                                     
   LPAW   =        T    paw PP                                                  
   EAUG   =  477.818                                                            
   DEXC   =    0.000                                                            
   RMAX   =    2.360    core radius for proj-oper                               
   RAUG   =    1.300    factor for augmentation sphere                          
   RDEP   =    2.393    radius for radial grids                                 
   RDEPT  =    1.864    core radius for aug-charge                              
                                                                                
   Atomic configuration                                                         
    9 entries                                                                   
     n  l   j            E        occ.                                          
     1  0  0.50     -7587.6674   2.0000                                         
     2  0  0.50      -893.6084   2.0000                                         
     2  1  1.50      -764.5805   6.0000                                         
     3  0  0.50       -97.5973   2.0000                                         
     3  1  1.50       -60.9648   6.0000                                         
     3  2  2.50        -4.2382   8.0000                                         
     4  0  0.50        -4.3746   1.0000                                         
     4  1  1.50        -4.0817   0.0000                                         
     4  3  2.50        -1.3606   0.0000                                         
   Description                                                                  
     l       E           TYP  RCUT    TYP  RCUT                                 
     2     -4.2382362     23  2.300                                             
     2     -5.5988188     23  2.300                                             
     0     -4.3745797     23  2.300                                             
     0      5.7660125     23  2.300                                             
     1     -2.7211652     23  2.300                                             
     1     16.9860234     23  2.300                                             
  local pseudopotential read in
  partial core-charges read in
  partial kinetic energy density read in
  atomic valenz-charges read in
  non local Contribution for L=           2  read in
    real space projection operators read in
  non local Contribution for L=           2  read in
    real space projection operators read in
  non local Contribution for L=           0  read in
    real space projection operators read in
  non local Contribution for L=           0  read in
    real space projection operators read in
  non local Contribution for L=           1  read in
    real space projection operators read in
  non local Contribution for L=           1  read in
    real space projection operators read in
    PAW grid and wavefunctions read in
 
   number of l-projection  operators is LMAX  =           6
   number of lm-projection operators is LMMAX =          18
 
 POTCAR:    PAW_PBE W 08Apr2002                   
   VRHFIN =W : 6s5d                                                             
   LEXCH  = PE                                                                  
   EATOM  =   204.6103 eV,   15.0384 Ry                                         
                                                                                
   TITEL  = PAW_PBE W 08Apr2002                                                 
   LULTRA =        F    use ultrasoft PP ?                                      
   IUNSCR =        1    unscreen: 0-lin 1-nonlin 2-no                           
   RPACOR =    2.330    partial core radius                                     
   POMASS =  183.850; ZVAL   =    6.000    mass and valenz                      
   RCORE  =    2.750    outmost cutoff radius                                   
   RWIGS  =    2.750; RWIGS  =    1.455    wigner-seitz radius (au A)           
   ENMAX  =  223.057; ENMIN  =  167.293 eV                                      
   RCLOC  =    2.147    cutoff for local pot                                    
   LCOR   =        T    correct aug charges                                     
   LPAW   =        T    paw PP                                                  
   EAUG   =  373.438                                                            
   DEXC   =    0.000                                                            
   RMAX   =    2.801    core radius for proj-oper                               
   RAUG   =    1.300    factor for augmentation sphere                          
   RDEP   =    2.886    radius for radial grids                                 
   RDEPT  =    2.230    core radius for aug-charge                              
                                                                                
   Atomic configuration                                                         
   16 entries                                                                   
     n  l   j            E        occ.                                          
     1  0  0.50    -69465.5836   2.0000                                         
     2  0  0.50    -11986.2642   2.0000                                         
     2  1  1.50    -10479.8616   6.0000                                         
     3  0  0.50     -2759.0758   2.0000                                         
     3  1  1.50     -2313.1857   6.0000                                         
     3  2  2.50     -1801.1185  10.0000                                         
     4  0  0.50      -567.6791   2.0000                                         
     4  1  1.50      -421.4694   6.0000                                         
     4  2  2.50      -236.3473  10.0000                                         
     4  3  3.50       -31.2666  14.0000                                         
     5  0  0.50       -77.1085   2.0000                                         
     5  1  1.50       -41.3856   6.0000                                         
     5  2  2.50        -3.3185   5.0000                                         
     6  0  0.50        -5.1438   1.0000                                         
     6  1  0.50        -3.8096   0.0000                                         
     5  3  2.50        -1.3606   0.0000                                         
   Description                                                                  
     l       E           TYP  RCUT    TYP  RCUT                                 
     2     -3.3185288     23  2.500                                             
     2     -1.5965414     23  2.500                                             
     0     -5.1438054     23  2.500                                             
     0      4.9117504     23  2.500                                             
     1      2.7211652     23  2.750                                             
     1     27.2116520     23  2.750                                             
  local pseudopotential read in
  partial core-charges read in
  partial kinetic energy density read in
  atomic valenz-charges read in
  non local Contribution for L=           2  read in
    real space projection operators read in
  non local Contribution for L=           2  read in
    real space projection operators read in
  non local Contribution for L=           0  read in
    real space projection operators read in
  non local Contribution for L=           0  read in
    real space projection operators read in
  non local Contribution for L=           1  read in
    real space projection operators read in
  non local Contribution for L=           1  read in
    real space projection operators read in
    PAW grid and wavefunctions read in
 
   number of l-projection  operators is LMAX  =           6
   number of lm-projection operators is LMMAX =          18
 
  PAW_PBE Co 02Aug2007                  :
 energy of atom  1       EATOM= -813.3670
 kinetic energy error for atom=    0.0366 (will be added to EATOM!!)
  PAW_PBE W 08Apr2002                   :
 energy of atom  2       EATOM= -204.6103
 kinetic energy error for atom=    0.0220 (will be added to EATOM!!)
 
 
 POSCAR: Co  W                                   
  positions in cartesian coordinates
  No initial velocities read in
 exchange correlation table for  LEXCH =        8
   RHO(1)=    0.500       N(1)  =     2000
   RHO(2)=  100.500       N(2)  =     4000
 


--------------------------------------------------------------------------------------------------------


 ion  position               nearest neighbor table
   1  0.750  0.500  0.250-   2 2.59   2 2.59   3 2.59   4 2.59   3 2.59   2 2.59   4 2.59   3 2.59
                             3 2.59   4 2.59
   2  0.500  0.000  0.500-   3 2.59   1 2.59   3 2.59   4 2.59   4 2.59   1 2.59   3 2.59   4 2.59
                             4 2.59   1 2.59
   3  0.250  0.500  0.750-   4 2.59   1 2.59   2 2.59   4 2.59   1 2.59   2 2.59   4 2.59   1 2.59
                             1 2.59   2 2.59
   4  0.000  0.000  0.000-   1 2.59   1 2.59   2 2.59   3 2.59   2 2.59   1 2.59   3 2.59   2 2.59
                             2 2.59   3 2.59
 
  LATTYP: Found a base centered monoclinic cell.
 ALAT       =     8.5834608405
 B/A-ratio  =     0.3015113446
 C/A-ratio  =     1.0444659357
 COS(beta)  =    -0.8333333333
  
  Lattice vectors:
  
 A1 = (  -3.6600000000,   1.8300000000,   1.8300000000)
 A2 = (  -1.8300000000,   3.6600000000,   1.8300000000)
 A3 = (   3.6600000000,  -3.6600000000,  -7.3200000000)


Analysis of symmetry for initial positions (statically):
=====================================================================
 Subroutine PRICEL returns:
 Original cell was already a primitive cell.
 

 Routine SETGRP: Setting up the symmetry group for a 
 base centered monoclinic supercell.


 Subroutine GETGRP returns: Found  4 space group operations
 (whereof  4 operations were pure point group operations)
 out of a pool of  4 trial point group operations.


The static configuration has the point symmetry C_2h.


Analysis of symmetry for dynamics (positions and initial velocities):
=====================================================================
 Subroutine PRICEL returns:
 Original cell was already a primitive cell.
 

 Routine SETGRP: Setting up the symmetry group for a 
 base centered monoclinic supercell.


 Subroutine GETGRP returns: Found  4 space group operations
 (whereof  4 operations were pure point group operations)
 out of a pool of  4 trial point group operations.


The dynamic configuration has the point symmetry C_2h.


 Subroutine INISYM returns: Found  4 space group operations
 (whereof  4 operations are pure point group operations),
 and found     1 'primitive' translations

 
 
 KPOINTS: Server version 2018.05.22. K-point grid 
  k-points in reciprocal lattice
Space group operators:
 irot       det(A)        alpha          n_x          n_y          n_z        tau_x        tau_y        tau_z
    1     1.000000     0.000000     1.000000     0.000000     0.000000     0.000000     0.000000     0.000000
    2    -1.000000     0.000000     1.000000     0.000000     0.000000     0.000000     0.000000     0.000000
    3     1.000000   180.000000     0.707107     0.707107     0.000000     0.000000     0.000000     0.000000
    4    -1.000000   180.000000     0.707107     0.707107     0.000000     0.000000     0.000000     0.000000


--------------------------------------------------------------------------------------------------------




 Dimension of arrays:
   k-points           NKPTS =    522   k-points in BZ     NKDIM =    522   number of bands    NBANDS=     20
   number of dos      NEDOS =    301   number of ions     NIONS =      4
   non local maximal  LDIM  =      6   non local SUM 2l+1 LMDIM =     18
   total plane-waves  NPLWV =   8064
   max r-space proj   IRMAX =      1   max aug-charges    IRDMAX=   9587
   dimension x,y,z NGX =    14 NGY =   24 NGZ =   24
   dimension x,y,z NGXF=    28 NGYF=   48 NGZF=   48
   support grid    NGXF=    28 NGYF=   48 NGZF=   48
   ions per type =               3   1
   NGX,Y,Z   is equivalent  to a cutoff of   8.99,  8.90,  8.90 a.u.
   NGXF,Y,Z  is equivalent  to a cutoff of  17.99, 17.80, 17.80 a.u.

 SYSTEM =  unknown system                          
 POSCAR =  Co  W                                   

 Startparameter for this run:
   NWRITE =      2    write-flag & timer
   PREC   = a         normal or accurate (medium, high low for compatibility)
   ISTART =      0    job   : 0-new  1-cont  2-samecut
   ICHARG =      2    charge: 1-file 2-atom 10-const
   ISPIN  =      1    spin polarized calculation?
   LNONCOLLINEAR =      F non collinear calculations
   LSORBIT =      F    spin-orbit coupling
   INIWAV =      1    electr: 0-lowe 1-rand  2-diag
   LASPH  =      F    aspherical Exc in radial PAW
   METAGGA=      F    non-selfconsistent MetaGGA calc.

 Electronic Relaxation 1
   ENCUT  =  268.0 eV  19.70 Ry    4.44 a.u.   3.45  5.98  5.98*2*pi/ulx,y,z
   ENINI  =  268.0     initial cutoff
   ENAUG  =  477.8 eV  augmentation charge cutoff
   NELM   =     60;   NELMIN=  2; NELMDL= -5     # of ELM steps 
   EDIFF  = 0.1E-04   stopping-criterion for ELM
   LREAL  =      F    real-space projection
   NLSPLINE    = F    spline interpolate recip. space projectors
   LCOMPAT=      F    compatible to vasp.4.4
   GGA_COMPAT  = T    GGA compatible to vasp.4.4-vasp.4.6
   LMAXPAW     = -100 max onsite density
   LMAXMIX     =    2 max onsite mixed and CHGCAR
   VOSKOWN=      0    Vosko Wilk Nusair interpolation
   ROPT   =    0.00000   0.00000
 Ionic relaxation
   EDIFFG = 0.1E-03   stopping-criterion for IOM
   NSW    =      0    number of steps for IOM
   NBLOCK =      1;   KBLOCK =      1    inner block; outer block 
   IBRION =     -1    ionic relax: 0-MD 1-quasi-New 2-CG
   NFREE  =      0    steps in history (QN), initial steepest desc. (CG)
   ISIF   =      2    stress and relaxation
   IWAVPR =     10    prediction:  0-non 1-charg 2-wave 3-comb
   ISYM   =      2    0-nonsym 1-usesym 2-fastsym
   LCORR  =      T    Harris-Foulkes like correction to forces

   POTIM  = 0.5000    time-step for ionic-motion
   TEIN   =    0.0    initial temperature
   TEBEG  =    0.0;   TEEND  =   0.0 temperature during run
   SMASS  =  -3.00    Nose mass-parameter (am)
   estimated Nose-frequenzy (Omega)   =  0.10E-29 period in steps =****** mass=  -0.153E-27a.u.
   SCALEE = 1.0000    scale energy and forces
   NPACO  =    256;   APACO  = 16.0  distance and # of slots for P.C.
   PSTRESS=    0.0 pullay stress

  Mass of Ions in am
   POMASS =  58.93183.85
  Ionic Valenz
   ZVAL   =   9.00  6.00
  Atomic Wigner-Seitz radii
   RWIGS  =  -1.00 -1.00
  virtual crystal weights 
   VCA    =   1.00  1.00
   NELECT =      33.0000    total number of electrons
   NUPDOWN=      -1.0000    fix difference up-down

 DOS related values:
   EMIN   =  10.00;   EMAX   =-10.00  energy-range for DOS
   EFERMI =   0.00
   ISMEAR =     1;   SIGMA  =   0.20  broadening in eV -4-tet -1-fermi 0-gaus

 Electronic relaxation 2 (details)
   IALGO  =     38    algorithm
   LDIAG  =      T    sub-space diagonalisation (order eigenvalues)
   LSUBROT=      F    optimize rotation matrix (better conditioning)
   TURBO    =      0    0=normal 1=particle mesh
   IRESTART =      0    0=no restart 2=restart with 2 vectors
   NREBOOT  =      0    no. of reboots
   NMIN     =      0    reboot dimension
   EREF     =   0.00    reference energy to select bands
   IMIX   =      4    mixing-type and parameters
     AMIX     =   0.40;   BMIX     =  1.00
     AMIX_MAG =   1.60;   BMIX_MAG =  1.00
     AMIN     =   0.10
     WC   =   100.;   INIMIX=   1;  MIXPRE=   1;  MAXMIX= -45

 Intra band minimization:
   WEIMIN = 0.0000     energy-eigenvalue tresh-hold
   EBREAK =  0.13E-06  absolut break condition
   DEPER  =   0.30     relativ break condition  

   TIME   =   0.40     timestep for ELM

  volume/ion in A,a.u.               =      12.26        82.71
  Fermi-wavevector in a.u.,A,eV,Ry     =   1.434713  2.711215 28.006254  2.058402
  Thomas-Fermi vector in A             =   2.554091
 
 Write flags
   LWAVE        =      T    write WAVECAR
   LDOWNSAMPLE  =      F    k-point downsampling of WAVECAR
   LCHARG       =      T    write CHGCAR
   LVTOT        =      F    write LOCPOT, total local potential
   LVHAR        =      F    write LOCPOT, Hartree potential only
   LELF         =      F    write electronic localiz. function (ELF)
   LORBIT       =      0    0 simple, 1 ext, 2 COOP (PROOUT), +10 PAW based schemes


 Dipole corrections
   LMONO  =      F    monopole corrections only (constant potential shift)
   LDIPOL =      F    correct potential (dipole corrections)
   IDIPOL =      0    1-x, 2-y, 3-z, 4-all directions 
   EPSILON=  1.0000000 bulk dielectric constant

 Exchange correlation treatment:
   GGA     =    PE    GGA type
   LEXCH   =     8    internal setting for exchange type
   VOSKOWN=      0    Vosko Wilk Nusair interpolation
   LHFCALC =     F    Hartree Fock is set to
   LHFONE  =     F    Hartree Fock one center treatment
   AEXX    =    0.0000 exact exchange contribution

 Linear response parameters
   LEPSILON=     F    determine dielectric tensor
   LRPA    =     F    only Hartree local field effects (RPA)
   LNABLA  =     F    use nabla operator in PAW spheres
   LVEL    =     F    velocity operator in full k-point grid
   LINTERFAST=   F  fast interpolation
   KINTER  =     0    interpolate to denser k-point grid
   CSHIFT  =0.1000    complex shift for real part using Kramers Kronig
   OMEGAMAX=  -1.0    maximum frequency
   DEG_THRESHOLD= 0.2000000E-02 threshold for treating states as degnerate
   RTIME   =   -0.100 relaxation time in fs
  (WPLASMAI=    0.000 imaginary part of plasma frequency in eV, 0.658/RTIME)
   DFIELD  = 0.0000000 0.0000000 0.0000000 field for delta impulse in time
 
 Orbital magnetization related:
   ORBITALMAG=     F  switch on orbital magnetization
   LCHIMAG   =     F  perturbation theory with respect to B field
   DQ        =  0.001000  dq finite difference perturbation B field
   LLRAUG    =     F  two centre corrections for induced B field



--------------------------------------------------------------------------------------------------------


 Static calculation
 charge density and potential will be updated during run
 non-spin polarized calculation
 Variant of blocked Davidson
 Davidson routine will perform the subspace rotation
 perform sub-space diagonalisation
    after iterative eigenvector-optimisation
 modified Broyden-mixing scheme, WC =      100.0
 initial mixing is a Kerker type mixing with AMIX =  0.4000 and BMIX =      1.0000
 Hartree-type preconditioning will be used
 using additional bands            3
 reciprocal scheme for non local part
 use partial core corrections
 calculate Harris-corrections to forces 
   (improved forces if not selfconsistent)
 use gradient corrections 
 use of overlap-Matrix (Vanderbilt PP)
 Methfessel and Paxton  Order N= 1 SIGMA  =   0.20


--------------------------------------------------------------------------------------------------------


  energy-cutoff  :      267.97
  volume of cell :       49.03
      direct lattice vectors                 reciprocal lattice vectors
     1.830000000  1.830000000  0.000000000     0.204918033  0.341530055  0.068306011
    -3.660000000  1.830000000  1.830000000    -0.136612022  0.136612022  0.136612022
     1.830000000 -1.830000000  3.660000000     0.068306011 -0.068306011  0.204918033

  length of vectors
     2.588010819  4.482566229  4.482566229     0.404103810  0.236618963  0.226545409


 
 k-points in units of 2pi/SCALE and weight: Server version 2018.05.22. K-point grid 
  -0.11357230  0.13308830  0.16127808       0.002
  -0.05068740  0.08971940  0.32824833       0.002
  -0.05610851  0.11465652  0.29030055       0.002
  -0.06152962  0.13959363  0.25235276       0.002
  -0.06695073  0.16453075  0.21440498       0.002
  -0.07237184  0.18946786  0.17645719       0.002
  -0.00948695  0.14609897  0.34342744       0.002
  -0.01490806  0.17103608  0.30547966       0.002
  -0.02032917  0.19597320  0.26753188       0.002
  -0.02575028  0.22091031  0.22958409       0.002
  -0.03117139  0.24584743  0.19163631       0.002
   0.03171351  0.20247853  0.35860656       0.002
   0.02629239  0.22741565  0.32065877       0.002
   0.02087128  0.25235276  0.28271099       0.002
   0.01545017  0.27728988  0.24476321       0.002
   0.01002906  0.30222699  0.20681542       0.002
   0.00460795  0.32716411  0.16886764       0.002
   0.06749284  0.28379521  0.33583789       0.002
   0.06207173  0.30873233  0.29789010       0.002
   0.05665062  0.33366944  0.25994232       0.002
   0.05122951  0.35860656  0.22199454       0.002
   0.04580840  0.38354367  0.18404675       0.002
   0.10869330  0.34017478  0.35101700       0.002
   0.10327218  0.36511189  0.31306922       0.002
   0.09785107  0.39004901  0.27512143       0.002
   0.09242996  0.41498612  0.23717365       0.002
   0.08700885  0.43992324  0.19922587       0.002
   0.14989375  0.39655434  0.36619611       0.001
  -0.06044540  0.07996140  0.25994232       0.002
  -0.06586651  0.10489852  0.22199454       0.002
  -0.07128762  0.12983563  0.18404675       0.002
  -0.07670873  0.15477275  0.14609897       0.002
  -0.01382384  0.11140385  0.31306922       0.002
  -0.01924495  0.13634097  0.27512143       0.002
  -0.02466606  0.16127808  0.23717365       0.002
  -0.03008717  0.18621520  0.19922587       0.002
  -0.03550828  0.21115231  0.16127808       0.002
   0.02737662  0.16778342  0.32824833       0.002
   0.02195550  0.19272053  0.29030055       0.002
   0.01653439  0.21765765  0.25235276       0.002
   0.01111328  0.24259476  0.21440498       0.002
   0.00569217  0.26753188  0.17645719       0.002
   0.06857707  0.22416298  0.34342744       0.002
   0.06315595  0.24910010  0.30547966       0.002
   0.05773484  0.27403721  0.26753188       0.002
   0.05231373  0.29897433  0.22958409       0.002
   0.04689262  0.32391144  0.19163631       0.002
   0.10977752  0.28054254  0.35860656       0.002
   0.10435641  0.30547966  0.32065877       0.002
   0.09893529  0.33041678  0.28271099       0.002
   0.09351418  0.35535389  0.24476321       0.002
   0.08809307  0.38029101  0.20681542       0.002
   0.08267196  0.40522812  0.16886764       0.002
   0.14555686  0.36185922  0.33583789       0.002
   0.14013574  0.38679634  0.29789010       0.002
   0.13471463  0.41173345  0.25994232       0.001
  -0.07562451  0.09514052  0.15368852       0.002
  -0.08104562  0.12007763  0.11574074       0.002
  -0.01816073  0.07670873  0.28271099       0.002
  -0.02900295  0.12658296  0.20681542       0.002
  -0.03442406  0.15152008  0.16886764       0.002
  -0.03984517  0.17645719  0.13091985       0.002
   0.02303973  0.13308830  0.29789010       0.002
   0.01761861  0.15802541  0.25994232       0.002
   0.01219750  0.18296253  0.22199454       0.002
   0.00677639  0.20789964  0.18404675       0.002
   0.00135528  0.23283676  0.14609897       0.002
   0.06424018  0.18946786  0.31306922       0.002
   0.05881906  0.21440498  0.27512143       0.002
   0.05339795  0.23934209  0.23717365       0.002
   0.04797684  0.26427921  0.19922587       0.002
   0.04255573  0.28921632  0.16127808       0.002
   0.10544063  0.24584743  0.32824833       0.002
   0.10001952  0.27078454  0.29030055       0.002
   0.09459840  0.29572166  0.25235276       0.002
   0.08917729  0.32065877  0.21440498       0.002
   0.08375618  0.34559589  0.17645719       0.002
   0.14664108  0.30222699  0.34342744       0.002
   0.14121997  0.32716411  0.30547966       0.002
   0.13579886  0.35210122  0.26753188       0.002
   0.13037774  0.37703834  0.22958409       0.002
   0.12495663  0.40197545  0.19163631       0.002
   0.18784153  0.35860656  0.35860656       0.001
  -0.02249761  0.04201362  0.25235276       0.002
  -0.02791873  0.06695073  0.21440498       0.002
  -0.03333984  0.09188785  0.17645719       0.002
  -0.04418206  0.14176208  0.10056163       0.002
   0.01870284  0.09839318  0.26753188       0.002
   0.01328172  0.12333030  0.22958409       0.002
   0.00243950  0.17320453  0.15368852       0.002
  -0.00298161  0.19814164  0.11574074       0.002
   0.05990329  0.15477275  0.28271099       0.002
   0.05448218  0.17970986  0.24476321       0.002
   0.04906106  0.20464698  0.20681542       0.002
   0.04363995  0.22958409  0.16886764       0.002
   0.03821884  0.25452121  0.13091985       0.002
   0.10110374  0.21115231  0.29789010       0.002
   0.09568263  0.23608943  0.25994232       0.002
   0.09026151  0.26102654  0.22199454       0.002
   0.08484040  0.28596366  0.18404675       0.002
   0.07941929  0.31090077  0.14609897       0.002
   0.14230419  0.26753188  0.31306922       0.002
   0.13688308  0.29246899  0.27512143       0.002
   0.13146197  0.31740611  0.23717365       0.002
   0.12604085  0.34234322  0.19922587       0.002
   0.12061974  0.36728034  0.16127808       0.002
   0.18350464  0.32391144  0.32824833       0.002
   0.17808353  0.34884856  0.29030055       0.002
   0.17266242  0.37378567  0.25235276       0.001
  -0.03767673  0.05719273  0.14609897       0.002
  -0.04309784  0.08212985  0.10815118       0.002
   0.01978706  0.03876095  0.27512143       0.002
   0.00894483  0.08863518  0.19922587       0.002
   0.00352372  0.11357230  0.16127808       0.002
  -0.00189739  0.13850941  0.12333030       0.002
   0.05556640  0.12007763  0.25235276       0.002
   0.05014529  0.14501475  0.21440498       0.002
   0.04472417  0.16995186  0.17645719       0.002
   0.03388195  0.21982609  0.10056163       0.002
   0.09676685  0.17645719  0.26753188       0.002
   0.09134574  0.20139431  0.22958409       0.002
   0.08592462  0.22633143  0.19163631       0.002
   0.08050351  0.25126854  0.15368852       0.002
   0.07508240  0.27620566  0.11574074       0.002
   0.13796730  0.23283676  0.28271099       0.002
   0.13254619  0.25777387  0.24476321       0.002
   0.12712508  0.28271099  0.20681542       0.002
   0.12170396  0.30764810  0.16886764       0.002
   0.11628285  0.33258522  0.13091985       0.002
   0.17916775  0.28921632  0.29789010       0.002
   0.17374664  0.31415344  0.25994232       0.002
   0.16832553  0.33909055  0.22199454       0.002
   0.16290441  0.36402767  0.18404675       0.002
   0.15748330  0.38896478  0.14609897       0.001
   0.01545017  0.00406583  0.24476321       0.002
   0.01002906  0.02900295  0.20681542       0.002
   0.00460795  0.05394006  0.16886764       0.002
  -0.00623428  0.10381429  0.09297207       0.002
   0.05665062  0.06044540  0.25994232       0.002
   0.05122951  0.08538251  0.22199454       0.002
   0.04038728  0.13525674  0.14609897       0.002
   0.03496617  0.16019386  0.10815118       0.002
   0.09785107  0.11682496  0.27512143       0.002
   0.08700885  0.16669919  0.19922587       0.002
   0.08158774  0.19163631  0.16127808       0.002
   0.07616662  0.21657342  0.12333030       0.002
   0.13363041  0.19814164  0.25235276       0.002
   0.12820930  0.22307876  0.21440498       0.002
   0.12278819  0.24801587  0.17645719       0.002
   0.11736707  0.27295299  0.13850941       0.002
   0.11194596  0.29789010  0.10056163       0.002
   0.17483086  0.25452121  0.26753188       0.002
   0.16940975  0.27945832  0.22958409       0.002
   0.16398864  0.30439544  0.19163631       0.002
   0.15856753  0.32933255  0.15368852       0.002
   0.15314641  0.35426967  0.11574074       0.002
   0.21603131  0.31090077  0.28271099       0.002
   0.21061020  0.33583789  0.24476321       0.001
   0.00027106  0.01924495  0.13850941       0.002
  -0.00515006  0.04418206  0.10056163       0.002
  -0.01057117  0.06911918  0.06261384       0.002
   0.04689262  0.05068740  0.19163631       0.002
   0.04147151  0.07562451  0.15368852       0.002
   0.03605039  0.10056163  0.11574074       0.002
   0.09351418  0.08212985  0.24476321       0.002
   0.08809307  0.10706696  0.20681542       0.002
   0.08267196  0.13200408  0.16886764       0.002
   0.07182973  0.18187831  0.09297207       0.002
   0.13471463  0.13850941  0.25994232       0.002
   0.12929352  0.16344653  0.22199454       0.002
   0.11845130  0.21332076  0.14609897       0.002
   0.11303018  0.23825787  0.10815118       0.002
   0.17591508  0.19488898  0.27512143       0.002
   0.16507286  0.24476321  0.19922587       0.002
   0.15965175  0.26970032  0.16127808       0.002
   0.15423064  0.29463744  0.12333030       0.002
   0.21711553  0.25126854  0.29030055       0.002
   0.21169442  0.27620566  0.25235276       0.002
   0.20627331  0.30114277  0.21440498       0.002
   0.20085220  0.32607989  0.17645719       0.002
   0.19543109  0.35101700  0.13850941       0.001
  -0.01490806  0.03442406  0.03225562       0.002
   0.04797684 -0.00894483  0.19922587       0.002
   0.04255573  0.01599228  0.16127808       0.002
   0.03171351  0.06586651  0.08538251       0.002
   0.02629239  0.09080363  0.04743473       0.002
   0.08917729  0.04743473  0.21440498       0.002
   0.07833507  0.09730896  0.13850941       0.002
   0.07291396  0.12224608  0.10056163       0.002
   0.06749284  0.14718319  0.06261384       0.002
   0.12495663  0.12875141  0.19163631       0.002
   0.11953552  0.15368852  0.15368852       0.002
   0.11411441  0.17862564  0.11574074       0.002
   0.17157819  0.16019386  0.24476321       0.002
   0.16615708  0.18513097  0.20681542       0.002
   0.16073597  0.21006809  0.16886764       0.002
   0.14989375  0.25994232  0.09297207       0.002
   0.21277865  0.21657342  0.25994232       0.002
   0.20735753  0.24151054  0.22199454       0.002
   0.19651531  0.29138477  0.14609897       0.002
   0.19109420  0.31632188  0.10815118       0.002
   0.25397910  0.27295299  0.27512143       0.002
   0.24855798  0.29789010  0.23717365       0.001
   0.03821884 -0.01870284  0.13091985       0.002
   0.03279773  0.00623428  0.09297207       0.002
   0.02737662  0.03117139  0.05502429       0.002
   0.08484040  0.01273961  0.18404675       0.002
   0.07941929  0.03767673  0.14609897       0.002
   0.07399818  0.06261384  0.10815118       0.002
   0.06315595  0.11248807  0.03225562       0.002
   0.12604085  0.06911918  0.19922587       0.002
   0.12061974  0.09405629  0.16127808       0.002
   0.10977752  0.14393052  0.08538251       0.002
   0.10435641  0.16886764  0.04743473       0.002
   0.16724130  0.12549874  0.21440498       0.002
   0.15639908  0.17537297  0.13850941       0.002
   0.01436595  0.33692211  0.23717365       0.002
   0.00894483  0.36185922  0.19922587       0.002
   0.06640862  0.34342744  0.32824833       0.002
   0.06098751  0.36836456  0.29030055       0.002
   0.05556640  0.39330167  0.25235276       0.002
   0.11303018  0.37486989  0.38137523       0.002
   0.10760907  0.39980701  0.34342744       0.002
   0.10218796  0.42474412  0.30547966       0.002
   0.09676685  0.44968124  0.26753188       0.001
  -0.07562451  0.09514052  0.29030055       0.002
  -0.08104562  0.12007763  0.25235276       0.002
  -0.09188785  0.16995186  0.17645719       0.002
  -0.02900295  0.12658296  0.34342744       0.002
  -0.03442406  0.15152008  0.30547966       0.002
  -0.04526629  0.20139431  0.22958409       0.002
  -0.05068740  0.22633143  0.19163631       0.002
   0.01219750  0.18296253  0.35860656       0.002
   0.00135528  0.23283676  0.28271099       0.002
  -0.00406583  0.25777387  0.24476321       0.002
  -0.00948695  0.28271099  0.20681542       0.002
   0.04797684  0.26427921  0.33583789       0.002
   0.04255573  0.28921632  0.29789010       0.002
   0.03713462  0.31415344  0.25994232       0.002
   0.02629239  0.36402767  0.18404675       0.002
   0.08917729  0.32065877  0.35101700       0.002
   0.08375618  0.34559589  0.31306922       0.002
   0.07291396  0.39547012  0.23717365       0.002
   0.06749284  0.42040723  0.19922587       0.002
   0.13037774  0.37703834  0.36619611       0.002
   0.11953552  0.42691257  0.29030055       0.001
  -0.09080363  0.11031963  0.18404675       0.002
  -0.09622474  0.13525674  0.14609897       0.002
  -0.03876095  0.11682496  0.27512143       0.002
  -0.04418206  0.14176208  0.23717365       0.002
  -0.04960317  0.16669919  0.19922587       0.002
   0.00786061  0.14826741  0.32824833       0.002
   0.00243950  0.17320453  0.29030055       0.002
  -0.00298161  0.19814164  0.25235276       0.002
  -0.01382384  0.24801587  0.17645719       0.002
   0.04906106  0.20464698  0.34342744       0.002
   0.04363995  0.22958409  0.30547966       0.002
   0.03279773  0.27945832  0.22958409       0.002
   0.02737662  0.30439544  0.19163631       0.002
   0.09026151  0.26102654  0.35860656       0.002
   0.07941929  0.31090077  0.28271099       0.002
   0.07399818  0.33583789  0.24476321       0.002
   0.06857707  0.36077500  0.20681542       0.002
   0.12604085  0.34234322  0.33583789       0.002
   0.12061974  0.36728034  0.29789010       0.002
   0.11519863  0.39221745  0.25994232       0.002
   0.10435641  0.44209168  0.18404675       0.001
  -0.03767673  0.05719273  0.28271099       0.002
  -0.04309784  0.08212985  0.24476321       0.002
  -0.05936118  0.15694119  0.13091985       0.002
   0.00352372  0.11357230  0.29789010       0.002
  -0.00731850  0.16344653  0.22199454       0.002
  -0.01273961  0.18838364  0.18404675       0.002
  -0.01816073  0.21332076  0.14609897       0.002
   0.03930306  0.19488898  0.27512143       0.002
   0.03388195  0.21982609  0.23717365       0.002
   0.02846084  0.24476321  0.19922587       0.002
   0.08592462  0.22633143  0.32824833       0.002
   0.08050351  0.25126854  0.29030055       0.002
   0.07508240  0.27620566  0.25235276       0.002
   0.06424018  0.32607989  0.17645719       0.002
   0.12712508  0.28271099  0.34342744       0.002
   0.12170396  0.30764810  0.30547966       0.002
   0.11086174  0.35752233  0.22958409       0.002
   0.10544063  0.38245945  0.19163631       0.002
   0.16832553  0.33909055  0.35860656       0.002
   0.15748330  0.38896478  0.28271099       0.001
  -0.05285584  0.07237184  0.17645719       0.002
  -0.05827695  0.09730896  0.13850941       0.002
  -0.00623428  0.10381429  0.22958409       0.002
  -0.01165539  0.12875141  0.19163631       0.002
   0.04038728  0.13525674  0.28271099       0.002
   0.03496617  0.16019386  0.24476321       0.002
   0.02412395  0.21006809  0.16886764       0.002
   0.01870284  0.23500520  0.13091985       0.002
   0.08158774  0.19163631  0.29789010       0.002
   0.07074551  0.24151054  0.22199454       0.002
   0.06532440  0.26644765  0.18404675       0.002
   0.05990329  0.29138477  0.14609897       0.002
   0.11736707  0.27295299  0.27512143       0.002
   0.11194596  0.29789010  0.23717365       0.002
   0.10652485  0.32282722  0.19922587       0.002
   0.16398864  0.30439544  0.32824833       0.002
   0.15856753  0.32933255  0.29030055       0.002
   0.15314641  0.35426967  0.25235276       0.002
   0.14230419  0.40414390  0.17645719       0.001
   0.00027106  0.01924495  0.27512143       0.002
  -0.00515006  0.04418206  0.23717365       0.002
  -0.02141339  0.11899341  0.12333030       0.002
   0.04147151  0.07562451  0.29030055       0.002
   0.02520817  0.15043586  0.17645719       0.002
   0.01978706  0.17537297  0.13850941       0.002
   0.07182973  0.18187831  0.22958409       0.002
   0.06640862  0.20681542  0.19163631       0.002
   0.05556640  0.25668965  0.11574074       0.002
   0.11845130  0.21332076  0.28271099       0.002
   0.11303018  0.23825787  0.24476321       0.002
   0.10218796  0.28813210  0.16886764       0.002
   0.09676685  0.31306922  0.13091985       0.002
   0.15965175  0.26970032  0.29789010       0.002
   0.14880952  0.31957455  0.22199454       0.002
   0.14338841  0.34451167  0.18404675       0.002
   0.13796730  0.36944878  0.14609897       0.002
   0.19543109  0.35101700  0.27512143       0.001
  -0.01490806  0.03442406  0.16886764       0.002
  -0.02032917  0.05936118  0.13091985       0.002
   0.03171351  0.06586651  0.22199454       0.002
   0.02629239  0.09080363  0.18404675       0.002
   0.07833507  0.09730896  0.27512143       0.002
   0.07291396  0.12224608  0.23717365       0.002
   0.05665062  0.19705742  0.12333030       0.002
   0.11953552  0.15368852  0.29030055       0.002
   0.10327218  0.22849987  0.17645719       0.002
   0.09785107  0.25343698  0.13850941       0.002
   0.15531486  0.23500520  0.26753188       0.002
   0.14989375  0.25994232  0.22958409       0.002
   0.14447263  0.28487943  0.19163631       0.002
   0.13363041  0.33475366  0.11574074       0.002
   0.19651531  0.29138477  0.28271099       0.002
   0.19109420  0.31632188  0.24476321       0.002
   0.18025197  0.36619611  0.16886764       0.001
  -0.03008717  0.04960317  0.06261384       0.002
   0.03279773  0.00623428  0.22958409       0.002
   0.01653439  0.08104562  0.11574074       0.002
   0.01111328  0.10598274  0.07779296       0.002
   0.06315595  0.11248807  0.16886764       0.002
   0.05773484  0.13742519  0.13091985       0.002
   0.10977752  0.14393052  0.22199454       0.002
   0.10435641  0.16886764  0.18404675       0.002
   0.15639908  0.17537297  0.27512143       0.002
   0.15097797  0.20031009  0.23717365       0.002
   0.13471463  0.27512143  0.12333030       0.002
   0.19759953  0.23175254  0.29030055       0.002
   0.18675731  0.28162677  0.21440498       0.002
   0.18133620  0.30656388  0.17645719       0.002
   0.17591508  0.33150100  0.13850941       0.002
   0.23337887  0.31306922  0.26753188       0.001
   0.02303973 -0.00352372  0.16127808       0.002
   0.01761861  0.02141339  0.12333030       0.002
   0.06966129  0.02791873  0.21440498       0.002
   0.06424018  0.05285584  0.17645719       0.002
   0.04797684  0.12766719  0.06261384       0.002
   0.11086174  0.08429829  0.22958409       0.002
   0.09459840  0.15910964  0.11574074       0.002
   0.08917729  0.18404675  0.07779296       0.002
   0.14121997  0.19055209  0.16886764       0.002
   0.13579886  0.21548920  0.13091985       0.002
   0.18784153  0.22199454  0.22199454       0.002
   0.18242042  0.24693165  0.18404675       0.002
   0.23446309  0.25343698  0.27512143       0.002
   0.22904198  0.27837410  0.23717365       0.002
   0.21819976  0.32824833  0.16127808       0.001
   0.00786061  0.01165539  0.05502429       0.002
   0.07074551 -0.03171351  0.22199454       0.002
   0.05448218  0.04309784  0.10815118       0.002
   0.04906106  0.06803496  0.07020340       0.002
   0.10110374  0.07454029  0.16127808       0.002
   0.09568263  0.09947740  0.12333030       0.002
   0.14772530  0.10598274  0.21440498       0.002
   0.14230419  0.13091985  0.17645719       0.002
   0.12604085  0.20573120  0.06261384       0.002
   0.18892575  0.16236230  0.22958409       0.002
   0.17266242  0.23717365  0.11574074       0.002
   0.16724130  0.26211076  0.07779296       0.002
   0.08267196  0.40522812  0.30547966       0.002
   0.07725085  0.43016524  0.26753188       0.002
   0.13471463  0.41173345  0.39655434       0.001
   0.03062928 -0.01111328  0.07779296       0.002
  -0.05394006  0.13200408  0.30547966       0.002
  -0.05936118  0.15694119  0.26753188       0.002
  -0.00731850  0.16344653  0.35860656       0.002
  -0.01273961  0.18838364  0.32065877       0.002
  -0.02900295  0.26319499  0.20681542       0.002
  -0.03442406  0.28813210  0.16886764       0.002
   0.01761861  0.29463744  0.25994232       0.002
   0.01219750  0.31957455  0.22199454       0.002
   0.06424018  0.32607989  0.31306922       0.002
   0.05881906  0.35101700  0.27512143       0.002
   0.11086174  0.35752233  0.36619611       0.002
   0.10544063  0.38245945  0.32824833       0.002
   0.08917729  0.45727080  0.21440498       0.001
  -0.05285584  0.07237184  0.31306922       0.002
  -0.06911918  0.14718319  0.19922587       0.002
  -0.07454029  0.17212031  0.16127808       0.002
  -0.02249761  0.17862564  0.25235276       0.002
  -0.02791873  0.20356275  0.21440498       0.002
   0.02412395  0.21006809  0.30547966       0.002
   0.01870284  0.23500520  0.26753188       0.002
   0.07074551  0.24151054  0.35860656       0.002
   0.06532440  0.26644765  0.32065877       0.002
   0.04906106  0.34125900  0.20681542       0.002
   0.04363995  0.36619611  0.16886764       0.002
   0.09568263  0.37270145  0.25994232       0.002
   0.09026151  0.39763856  0.22199454       0.002
   0.14230419  0.40414390  0.31306922       0.001
  -0.06803496  0.08755096  0.20681542       0.002
  -0.02141339  0.11899341  0.25994232       0.002
  -0.03767673  0.19380475  0.14609897       0.002
   0.02520817  0.15043586  0.31306922       0.002
   0.00894483  0.22524720  0.19922587       0.002
   0.00352372  0.25018432  0.16127808       0.002
   0.05556640  0.25668965  0.25235276       0.002
   0.05014529  0.28162677  0.21440498       0.002
   0.10218796  0.28813210  0.30547966       0.002
   0.09676685  0.31306922  0.26753188       0.002
   0.14880952  0.31957455  0.35860656       0.002
   0.14338841  0.34451167  0.32065877       0.002
   0.12712508  0.41932301  0.20681542       0.001
  -0.08321407  0.10273007  0.10056163       0.002
  -0.03659251  0.13417252  0.15368852       0.002
   0.01002906  0.16561497  0.20681542       0.002
   0.06207173  0.17212031  0.29789010       0.002
   0.05665062  0.19705742  0.25994232       0.002
   0.04038728  0.27186877  0.14609897       0.002
   0.10327218  0.22849987  0.31306922       0.002
   0.08700885  0.30331122  0.19922587       0.002
   0.08158774  0.32824833  0.16127808       0.002
   0.13363041  0.33475366  0.25235276       0.002
   0.12820930  0.35969078  0.21440498       0.002
   0.18025197  0.36619611  0.30547966       0.001
  -0.03008717  0.04960317  0.19922587       0.002
   0.01653439  0.08104562  0.25235276       0.002
  -0.00515006  0.18079408  0.10056163       0.002
   0.04147151  0.21223653  0.15368852       0.002
   0.09351418  0.21874187  0.24476321       0.002
   0.08809307  0.24367898  0.20681542       0.002
   0.14013574  0.25018432  0.29789010       0.002
   0.13471463  0.27512143  0.25994232       0.002
   0.11845130  0.34993278  0.14609897       0.002
   0.18133620  0.30656388  0.31306922       0.002
   0.16507286  0.38137523  0.19922587       0.001
  -0.04526629  0.06478229  0.09297207       0.002
   0.00135528  0.09622474  0.14609897       0.002
   0.04797684  0.12766719  0.19922587       0.002
   0.09459840  0.15910964  0.25235276       0.002
   0.07291396  0.25885810  0.10056163       0.002
   0.12495663  0.26536343  0.19163631       0.002
   0.11953552  0.29030055  0.15368852       0.002
   0.17157819  0.29680588  0.24476321       0.002
   0.16615708  0.32174300  0.20681542       0.002
   0.21819976  0.32824833  0.29789010       0.001
   0.00786061  0.01165539  0.19163631       0.002
   0.05448218  0.04309784  0.24476321       0.002
   0.03279773  0.14284630  0.09297207       0.002
   0.07941929  0.17428875  0.14609897       0.002
   0.12604085  0.20573120  0.19922587       0.002
   0.17266242  0.23717365  0.25235276       0.002
   0.15639908  0.31198499  0.13850941       0.002
   0.15097797  0.33692211  0.10056163       0.002
   0.20302064  0.34342744  0.19163631       0.001
  -0.00731850  0.02683450  0.08538251       0.002
   0.03930306  0.05827695  0.13850941       0.002
   0.08592462  0.08971940  0.19163631       0.002
   0.13254619  0.12116185  0.24476321       0.002
   0.11086174  0.22091031  0.09297207       0.002
   0.15748330  0.25235276  0.14609897       0.002
   0.20410487  0.28379521  0.19922587       0.002
   0.25614754  0.29030055  0.29030055       0.001
   0.04580840 -0.02629239  0.18404675       0.002
   0.02412395  0.07345607  0.03225562       0.002
   0.07074551  0.10489852  0.08538251       0.002
   0.11736707  0.13634097  0.13850941       0.002
   0.16398864  0.16778342  0.19163631       0.002
   0.21061020  0.19922587  0.24476321       0.002
   0.18892575  0.29897433  0.09297207       0.002
   0.24096843  0.30547966  0.18404675       0.001
   0.05231373  0.02575028  0.09297207       0.002
   0.09893529  0.05719273  0.14609897       0.002
   0.00894483  0.22524720  0.33583789       0.002
  -0.01273961  0.32499566  0.18404675       0.002
   0.03388195  0.35643811  0.23717365       0.002
   0.08050351  0.38788056  0.29030055       0.002
   0.12712508  0.41932301  0.34342744       0.001
  -0.03117139  0.10923541  0.32824833       0.002
  -0.05285584  0.20898387  0.17645719       0.002
  -0.00623428  0.24042632  0.22958409       0.002
   0.04038728  0.27186877  0.28271099       0.002
   0.08700885  0.30331122  0.33583789       0.002
   0.06532440  0.40305968  0.18404675       0.002
   0.11194596  0.43450213  0.23717365       0.001
   0.00027106  0.15585697  0.27512143       0.002
   0.04689262  0.18729942  0.32824833       0.002
   0.02520817  0.28704788  0.17645719       0.002
   0.07182973  0.31849033  0.22958409       0.002
   0.11845130  0.34993278  0.28271099       0.002
   0.16507286  0.38137523  0.33583789       0.001
   0.03171351  0.20247853  0.22199454       0.002
   0.07833507  0.23392098  0.27512143       0.002
   0.12495663  0.26536343  0.32824833       0.002
   0.10327218  0.36511189  0.17645719       0.002
   0.14989375  0.39655434  0.22958409       0.001
   0.06315595  0.24910010  0.16886764       0.002
   0.10977752  0.28054254  0.22199454       0.002
   0.15639908  0.31198499  0.27512143       0.002
   0.20302064  0.34342744  0.32824833       0.001
   0.09459840  0.29572166  0.11574074       0.002
   0.14121997  0.32716411  0.16886764       0.002
   0.18784153  0.35860656  0.22199454       0.001
   0.19434686  0.27403721  0.26753188       0.002
   0.17266242  0.37378567  0.11574074       0.001
   0.22578931  0.32065877  0.21440498       0.001
   0.21061020  0.33583789  0.10815118       0.001
 
 k-points in reciprocal lattice and weights: Server version 2018.05.22. K-point grid 
   0.03571429  0.95436508  0.13888889       0.002
   0.07142857  0.95039683  0.94444444       0.002
   0.10714286  0.94642857  0.75000000       0.002
   0.14285714  0.94246032  0.55555556       0.002
   0.17857143  0.93849206  0.36111111       0.002
   0.21428571  0.93452381  0.16666667       0.002
   0.25000000  0.93055556  0.97222222       0.002
   0.28571429  0.92658730  0.77777778       0.002
   0.32142857  0.92261905  0.58333333       0.002
   0.35714286  0.91865079  0.38888889       0.002
   0.39285714  0.91468254  0.19444444       0.002
   0.42857143  0.91071429  1.00000000       0.002
   0.46428571  0.90674603  0.80555556       0.002
   0.50000000  0.90277778  0.61111111       0.002
   0.53571429  0.89880952  0.41666667       0.002
   0.57142857  0.89484127  0.22222222       0.002
   0.60714286  0.89087302  0.02777778       0.002
   0.64285714  0.88690476  0.83333333       0.002
   0.67857143  0.88293651  0.63888889       0.002
   0.71428571  0.87896825  0.44444444       0.002
   0.75000000  0.87500000  0.25000000       0.002
   0.78571429  0.87103175  0.05555556       0.002
   0.82142857  0.86706349  0.86111111       0.002
   0.85714286  0.86309524  0.66666667       0.002
   0.89285714  0.85912698  0.47222222       0.002
   0.92857143  0.85515873  0.27777778       0.002
   0.96428571  0.85119048  0.08333333       0.002
   1.00000000  0.84722222  0.88888889       0.001
   0.03571429  0.84325397  0.69444444       0.002
   0.07142857  0.83928571  0.50000000       0.002
   0.10714286  0.83531746  0.30555556       0.002
   0.14285714  0.83134921  0.11111111       0.002
   0.17857143  0.82738095  0.91666667       0.002
   0.21428571  0.82341270  0.72222222       0.002
   0.25000000  0.81944444  0.52777778       0.002
   0.28571429  0.81547619  0.33333333       0.002
   0.32142857  0.81150794  0.13888889       0.002
   0.35714286  0.80753968  0.94444444       0.002
   0.39285714  0.80357143  0.75000000       0.002
   0.42857143  0.79960317  0.55555556       0.002
   0.46428571  0.79563492  0.36111111       0.002
   0.50000000  0.79166667  0.16666667       0.002
   0.53571429  0.78769841  0.97222222       0.002
   0.57142857  0.78373016  0.77777778       0.002
   0.60714286  0.77976190  0.58333333       0.002
   0.64285714  0.77579365  0.38888889       0.002
   0.67857143  0.77182540  0.19444444       0.002
   0.71428571  0.76785714  1.00000000       0.002
   0.75000000  0.76388889  0.80555556       0.002
   0.78571429  0.75992063  0.61111111       0.002
   0.82142857  0.75595238  0.41666667       0.002
   0.85714286  0.75198413  0.22222222       0.002
   0.89285714  0.74801587  0.02777778       0.002
   0.92857143  0.74404762  0.83333333       0.002
   0.96428571  0.74007937  0.63888889       0.002
   1.00000000  0.73611111  0.44444444       0.001
   0.03571429  0.73214286  0.25000000       0.002
   0.07142857  0.72817460  0.05555556       0.002
   0.10714286  0.72420635  0.86111111       0.002
   0.17857143  0.71626984  0.47222222       0.002
   0.21428571  0.71230159  0.27777778       0.002
   0.25000000  0.70833333  0.08333333       0.002
   0.28571429  0.70436508  0.88888889       0.002
   0.32142857  0.70039683  0.69444444       0.002
   0.35714286  0.69642857  0.50000000       0.002
   0.39285714  0.69246032  0.30555556       0.002
   0.42857143  0.68849206  0.11111111       0.002
   0.46428571  0.68452381  0.91666667       0.002
   0.50000000  0.68055556  0.72222222       0.002
   0.53571429  0.67658730  0.52777778       0.002
   0.57142857  0.67261905  0.33333333       0.002
   0.60714286  0.66865079  0.13888889       0.002
   0.64285714  0.66468254  0.94444444       0.002
   0.67857143  0.66071429  0.75000000       0.002
   0.71428571  0.65674603  0.55555556       0.002
   0.75000000  0.65277778  0.36111111       0.002
   0.78571429  0.64880952  0.16666667       0.002
   0.82142857  0.64484127  0.97222222       0.002
   0.85714286  0.64087302  0.77777778       0.002
   0.89285714  0.63690476  0.58333333       0.002
   0.92857143  0.63293651  0.38888889       0.002
   0.96428571  0.62896825  0.19444444       0.002
   1.00000000  0.62500000  1.00000000       0.001
   0.03571429  0.62103175  0.80555556       0.002
   0.07142857  0.61706349  0.61111111       0.002
   0.10714286  0.61309524  0.41666667       0.002
   0.17857143  0.60515873  0.02777778       0.002
   0.21428571  0.60119048  0.83333333       0.002
   0.25000000  0.59722222  0.63888889       0.002
   0.32142857  0.58928571  0.25000000       0.002
   0.35714286  0.58531746  0.05555556       0.002
   0.39285714  0.58134921  0.86111111       0.002
   0.42857143  0.57738095  0.66666667       0.002
   0.46428571  0.57341270  0.47222222       0.002
   0.50000000  0.56944444  0.27777778       0.002
   0.53571429  0.56547619  0.08333333       0.002
   0.57142857  0.56150794  0.88888889       0.002
   0.60714286  0.55753968  0.69444444       0.002
   0.64285714  0.55357143  0.50000000       0.002
   0.67857143  0.54960317  0.30555556       0.002
   0.71428571  0.54563492  0.11111111       0.002
   0.75000000  0.54166667  0.91666667       0.002
   0.78571429  0.53769841  0.72222222       0.002
   0.82142857  0.53373016  0.52777778       0.002
   0.85714286  0.52976190  0.33333333       0.002
   0.89285714  0.52579365  0.13888889       0.002
   0.92857143  0.52182540  0.94444444       0.002
   0.96428571  0.51785714  0.75000000       0.002
   1.00000000  0.51388889  0.55555556       0.001
   0.03571429  0.50992063  0.36111111       0.002
   0.07142857  0.50595238  0.16666667       0.002
   0.10714286  0.50198413  0.97222222       0.002
   0.17857143  0.49404762  0.58333333       0.002
   0.21428571  0.49007937  0.38888889       0.002
   0.25000000  0.48611111  0.19444444       0.002
   0.32142857  0.47817460  0.80555556       0.002
   0.35714286  0.47420635  0.61111111       0.002
   0.39285714  0.47023810  0.41666667       0.002
   0.46428571  0.46230159  0.02777778       0.002
   0.50000000  0.45833333  0.83333333       0.002
   0.53571429  0.45436508  0.63888889       0.002
   0.57142857  0.45039683  0.44444444       0.002
   0.60714286  0.44642857  0.25000000       0.002
   0.64285714  0.44246032  0.05555556       0.002
   0.67857143  0.43849206  0.86111111       0.002
   0.71428571  0.43452381  0.66666667       0.002
   0.75000000  0.43055556  0.47222222       0.002
   0.78571429  0.42658730  0.27777778       0.002
   0.82142857  0.42261905  0.08333333       0.002
   0.85714286  0.41865079  0.88888889       0.002
   0.89285714  0.41468254  0.69444444       0.002
   0.92857143  0.41071429  0.50000000       0.002
   0.96428571  0.40674603  0.30555556       0.002
   1.00000000  0.40277778  0.11111111       0.001
   0.03571429  0.39880952  0.91666667       0.002
   0.07142857  0.39484127  0.72222222       0.002
   0.10714286  0.39087302  0.52777778       0.002
   0.17857143  0.38293651  0.13888889       0.002
   0.21428571  0.37896825  0.94444444       0.002
   0.25000000  0.37500000  0.75000000       0.002
   0.32142857  0.36706349  0.36111111       0.002
   0.35714286  0.36309524  0.16666667       0.002
   0.39285714  0.35912698  0.97222222       0.002
   0.46428571  0.35119048  0.58333333       0.002
   0.50000000  0.34722222  0.38888889       0.002
   0.53571429  0.34325397  0.19444444       0.002
   0.60714286  0.33531746  0.80555556       0.002
   0.64285714  0.33134921  0.61111111       0.002
   0.67857143  0.32738095  0.41666667       0.002
   0.71428571  0.32341270  0.22222222       0.002
   0.75000000  0.31944444  0.02777778       0.002
   0.78571429  0.31547619  0.83333333       0.002
   0.82142857  0.31150794  0.63888889       0.002
   0.85714286  0.30753968  0.44444444       0.002
   0.89285714  0.30357143  0.25000000       0.002
   0.92857143  0.29960317  0.05555556       0.002
   0.96428571  0.29563492  0.86111111       0.002
   1.00000000  0.29166667  0.66666667       0.001
   0.03571429  0.28769841  0.47222222       0.002
   0.07142857  0.28373016  0.27777778       0.002
   0.10714286  0.27976190  0.08333333       0.002
   0.17857143  0.27182540  0.69444444       0.002
   0.21428571  0.26785714  0.50000000       0.002
   0.25000000  0.26388889  0.30555556       0.002
   0.32142857  0.25595238  0.91666667       0.002
   0.35714286  0.25198413  0.72222222       0.002
   0.39285714  0.24801587  0.52777778       0.002
   0.46428571  0.24007937  0.13888889       0.002
   0.50000000  0.23611111  0.94444444       0.002
   0.53571429  0.23214286  0.75000000       0.002
   0.60714286  0.22420635  0.36111111       0.002
   0.64285714  0.22023810  0.16666667       0.002
   0.67857143  0.21626984  0.97222222       0.002
   0.75000000  0.20833333  0.58333333       0.002
   0.78571429  0.20436508  0.38888889       0.002
   0.82142857  0.20039683  0.19444444       0.002
   0.85714286  0.19642857  1.00000000       0.002
   0.89285714  0.19246032  0.80555556       0.002
   0.92857143  0.18849206  0.61111111       0.002
   0.96428571  0.18452381  0.41666667       0.002
   1.00000000  0.18055556  0.22222222       0.001
   0.03571429  0.17658730  0.02777778       0.002
   0.07142857  0.17261905  0.83333333       0.002
   0.10714286  0.16865079  0.63888889       0.002
   0.17857143  0.16071429  0.25000000       0.002
   0.21428571  0.15674603  0.05555556       0.002
   0.25000000  0.15277778  0.86111111       0.002
   0.32142857  0.14484127  0.47222222       0.002
   0.35714286  0.14087302  0.27777778       0.002
   0.39285714  0.13690476  0.08333333       0.002
   0.46428571  0.12896825  0.69444444       0.002
   0.50000000  0.12500000  0.50000000       0.002
   0.53571429  0.12103175  0.30555556       0.002
   0.60714286  0.11309524  0.91666667       0.002
   0.64285714  0.10912698  0.72222222       0.002
   0.67857143  0.10515873  0.52777778       0.002
   0.75000000  0.09722222  0.13888889       0.002
   0.78571429  0.09325397  0.94444444       0.002
   0.82142857  0.08928571  0.75000000       0.002
   0.89285714  0.08134921  0.36111111       0.002
   0.92857143  0.07738095  0.16666667       0.002
   0.96428571  0.07341270  0.97222222       0.002
   1.00000000  0.06944444  0.77777778       0.001
   0.03571429  0.06547619  0.58333333       0.002
   0.07142857  0.06150794  0.38888889       0.002
   0.10714286  0.05753968  0.19444444       0.002
   0.17857143  0.04960317  0.80555556       0.002
   0.21428571  0.04563492  0.61111111       0.002
   0.25000000  0.04166667  0.41666667       0.002
   0.32142857  0.03373016  0.02777778       0.002
   0.35714286  0.02976190  0.83333333       0.002
   0.39285714  0.02579365  0.63888889       0.002
   0.46428571  0.01785714  0.25000000       0.002
   0.50000000  0.01388889  0.05555556       0.002
   0.53571429  0.00992063  0.86111111       0.002
   0.60714286  0.00198413  0.47222222       0.002
   0.64285714  0.99801587  0.27777778       0.002
   0.67857143  0.99404762  0.08333333       0.002
   0.75000000  0.98611111  0.69444444       0.002
   0.78571429  0.98214286  0.50000000       0.002
   0.82142857  0.97817460  0.30555556       0.002
   0.89285714  0.97023810  0.91666667       0.002
   0.92857143  0.96626984  0.72222222       0.002
   0.96428571  0.96230159  0.52777778       0.002
   1.00000000  0.95833333  0.33333333       0.001
   0.03571429  0.98214286  0.75000000       0.002
   0.07142857  0.97817460  0.55555556       0.002
   0.14285714  0.97023810  0.16666667       0.002
   0.17857143  0.96626984  0.97222222       0.002
   0.21428571  0.96230159  0.77777778       0.002
   0.28571429  0.95436508  0.38888889       0.002
   0.32142857  0.95039683  0.19444444       0.002
   0.35714286  0.94642857  1.00000000       0.002
   0.42857143  0.93849206  0.61111111       0.002
   0.46428571  0.93452381  0.41666667       0.002
   0.50000000  0.93055556  0.22222222       0.002
   0.57142857  0.92261905  0.83333333       0.002
   0.60714286  0.91865079  0.63888889       0.002
   0.64285714  0.91468254  0.44444444       0.002
   0.71428571  0.90674603  0.05555556       0.002
   0.75000000  0.90277778  0.86111111       0.002
   0.78571429  0.89880952  0.66666667       0.002
   0.85714286  0.89087302  0.27777778       0.002
   0.89285714  0.88690476  0.08333333       0.002
   0.92857143  0.88293651  0.88888889       0.002
   1.00000000  0.87500000  0.50000000       0.001
   0.03571429  0.87103175  0.30555556       0.002
   0.07142857  0.86706349  0.11111111       0.002
   0.14285714  0.85912698  0.72222222       0.002
   0.17857143  0.85515873  0.52777778       0.002
   0.21428571  0.85119048  0.33333333       0.002
   0.28571429  0.84325397  0.94444444       0.002
   0.32142857  0.83928571  0.75000000       0.002
   0.35714286  0.83531746  0.55555556       0.002
   0.42857143  0.82738095  0.16666667       0.002
   0.46428571  0.82341270  0.97222222       0.002
   0.50000000  0.81944444  0.77777778       0.002
   0.57142857  0.81150794  0.38888889       0.002
   0.60714286  0.80753968  0.19444444       0.002
   0.64285714  0.80357143  1.00000000       0.002
   0.71428571  0.79563492  0.61111111       0.002
   0.75000000  0.79166667  0.41666667       0.002
   0.78571429  0.78769841  0.22222222       0.002
   0.85714286  0.77976190  0.83333333       0.002
   0.89285714  0.77579365  0.63888889       0.002
   0.92857143  0.77182540  0.44444444       0.002
   1.00000000  0.76388889  0.05555556       0.001
   0.03571429  0.75992063  0.86111111       0.002
   0.07142857  0.75595238  0.66666667       0.002
   0.17857143  0.74404762  0.08333333       0.002
   0.21428571  0.74007937  0.88888889       0.002
   0.28571429  0.73214286  0.50000000       0.002
   0.32142857  0.72817460  0.30555556       0.002
   0.35714286  0.72420635  0.11111111       0.002
   0.42857143  0.71626984  0.72222222       0.002
   0.46428571  0.71230159  0.52777778       0.002
   0.50000000  0.70833333  0.33333333       0.002
   0.57142857  0.70039683  0.94444444       0.002
   0.60714286  0.69642857  0.75000000       0.002
   0.64285714  0.69246032  0.55555556       0.002
   0.71428571  0.68452381  0.16666667       0.002
   0.75000000  0.68055556  0.97222222       0.002
   0.78571429  0.67658730  0.77777778       0.002
   0.85714286  0.66865079  0.38888889       0.002
   0.89285714  0.66468254  0.19444444       0.002
   0.92857143  0.66071429  1.00000000       0.002
   1.00000000  0.65277778  0.61111111       0.001
   0.03571429  0.64880952  0.41666667       0.002
   0.07142857  0.64484127  0.22222222       0.002
   0.17857143  0.63293651  0.63888889       0.002
   0.21428571  0.62896825  0.44444444       0.002
   0.32142857  0.61706349  0.86111111       0.002
   0.35714286  0.61309524  0.66666667       0.002
   0.42857143  0.60515873  0.27777778       0.002
   0.46428571  0.60119048  0.08333333       0.002
   0.50000000  0.59722222  0.88888889       0.002
   0.57142857  0.58928571  0.50000000       0.002
   0.60714286  0.58531746  0.30555556       0.002
   0.64285714  0.58134921  0.11111111       0.002
   0.71428571  0.57341270  0.72222222       0.002
   0.75000000  0.56944444  0.52777778       0.002
   0.78571429  0.56547619  0.33333333       0.002
   0.85714286  0.55753968  0.94444444       0.002
   0.89285714  0.55357143  0.75000000       0.002
   0.92857143  0.54960317  0.55555556       0.002
   1.00000000  0.54166667  0.16666667       0.001
   0.03571429  0.53769841  0.97222222       0.002
   0.07142857  0.53373016  0.77777778       0.002
   0.17857143  0.52182540  0.19444444       0.002
   0.21428571  0.51785714  1.00000000       0.002
   0.32142857  0.50595238  0.41666667       0.002
   0.35714286  0.50198413  0.22222222       0.002
   0.46428571  0.49007937  0.63888889       0.002
   0.50000000  0.48611111  0.44444444       0.002
   0.57142857  0.47817460  0.05555556       0.002
   0.60714286  0.47420635  0.86111111       0.002
   0.64285714  0.47023810  0.66666667       0.002
   0.71428571  0.46230159  0.27777778       0.002
   0.75000000  0.45833333  0.08333333       0.002
   0.78571429  0.45436508  0.88888889       0.002
   0.85714286  0.44642857  0.50000000       0.002
   0.89285714  0.44246032  0.30555556       0.002
   0.92857143  0.43849206  0.11111111       0.002
   1.00000000  0.43055556  0.72222222       0.001
   0.03571429  0.42658730  0.52777778       0.002
   0.07142857  0.42261905  0.33333333       0.002
   0.17857143  0.41071429  0.75000000       0.002
   0.21428571  0.40674603  0.55555556       0.002
   0.32142857  0.39484127  0.97222222       0.002
   0.35714286  0.39087302  0.77777778       0.002
   0.46428571  0.37896825  0.19444444       0.002
   0.50000000  0.37500000  1.00000000       0.002
   0.60714286  0.36309524  0.41666667       0.002
   0.64285714  0.35912698  0.22222222       0.002
   0.71428571  0.35119048  0.83333333       0.002
   0.75000000  0.34722222  0.63888889       0.002
   0.78571429  0.34325397  0.44444444       0.002
   0.85714286  0.33531746  0.05555556       0.002
   0.89285714  0.33134921  0.86111111       0.002
   0.92857143  0.32738095  0.66666667       0.002
   1.00000000  0.31944444  0.27777778       0.001
   0.03571429  0.31547619  0.08333333       0.002
   0.07142857  0.31150794  0.88888889       0.002
   0.17857143  0.29960317  0.30555556       0.002
   0.21428571  0.29563492  0.11111111       0.002
   0.32142857  0.28373016  0.52777778       0.002
   0.35714286  0.27976190  0.33333333       0.002
   0.46428571  0.26785714  0.75000000       0.002
   0.50000000  0.26388889  0.55555556       0.002
   0.60714286  0.25198413  0.97222222       0.002
   0.64285714  0.24801587  0.77777778       0.002
   0.75000000  0.23611111  0.19444444       0.002
   0.78571429  0.23214286  1.00000000       0.002
   0.85714286  0.22420635  0.61111111       0.002
   0.89285714  0.22023810  0.41666667       0.002
   0.92857143  0.21626984  0.22222222       0.002
   1.00000000  0.20833333  0.83333333       0.001
   0.03571429  0.20436508  0.63888889       0.002
   0.07142857  0.20039683  0.44444444       0.002
   0.17857143  0.18849206  0.86111111       0.002
   0.21428571  0.18452381  0.66666667       0.002
   0.32142857  0.17261905  0.08333333       0.002
   0.35714286  0.16865079  0.88888889       0.002
   0.46428571  0.15674603  0.30555556       0.002
   0.50000000  0.15277778  0.11111111       0.002
   0.60714286  0.14087302  0.52777778       0.002
   0.64285714  0.13690476  0.33333333       0.002
   0.75000000  0.12500000  0.75000000       0.002
   0.78571429  0.12103175  0.55555556       0.002
   0.89285714  0.10912698  0.97222222       0.002
   0.92857143  0.10515873  0.77777778       0.002
   1.00000000  0.09722222  0.38888889       0.001
   0.03571429  0.09325397  0.19444444       0.002
   0.07142857  0.08928571  1.00000000       0.002
   0.17857143  0.07738095  0.41666667       0.002
   0.21428571  0.07341270  0.22222222       0.002
   0.32142857  0.06150794  0.63888889       0.002
   0.35714286  0.05753968  0.44444444       0.002
   0.46428571  0.04563492  0.86111111       0.002
   0.50000000  0.04166667  0.66666667       0.002
   0.60714286  0.02976190  0.08333333       0.002
   0.64285714  0.02579365  0.88888889       0.002
   0.75000000  0.01388889  0.30555556       0.002
   0.78571429  0.00992063  0.11111111       0.002
   0.89285714  0.99801587  0.52777778       0.002
   0.92857143  0.99404762  0.33333333       0.002
   1.00000000  0.98611111  0.94444444       0.001
   0.03571429  0.00992063  0.36111111       0.002
   0.14285714  0.99801587  0.77777778       0.002
   0.17857143  0.99404762  0.58333333       0.002
   0.28571429  0.98214286  1.00000000       0.002
   0.32142857  0.97817460  0.80555556       0.002
   0.42857143  0.96626984  0.22222222       0.002
   0.46428571  0.96230159  0.02777778       0.002
   0.57142857  0.95039683  0.44444444       0.002
   0.60714286  0.94642857  0.25000000       0.002
   0.71428571  0.93452381  0.66666667       0.002
   0.75000000  0.93055556  0.47222222       0.002
   0.85714286  0.91865079  0.88888889       0.002
   0.89285714  0.91468254  0.69444444       0.002
   1.00000000  0.90277778  0.11111111       0.001
   0.03571429  0.89880952  0.91666667       0.002
   0.14285714  0.88690476  0.33333333       0.002
   0.17857143  0.88293651  0.13888889       0.002
   0.28571429  0.87103175  0.55555556       0.002
   0.32142857  0.86706349  0.36111111       0.002
   0.42857143  0.85515873  0.77777778       0.002
   0.46428571  0.85119048  0.58333333       0.002
   0.57142857  0.83928571  1.00000000       0.002
   0.60714286  0.83531746  0.80555556       0.002
   0.71428571  0.82341270  0.22222222       0.002
   0.75000000  0.81944444  0.02777778       0.002
   0.85714286  0.80753968  0.44444444       0.002
   0.89285714  0.80357143  0.25000000       0.002
   1.00000000  0.79166667  0.66666667       0.001
   0.03571429  0.78769841  0.47222222       0.002
   0.17857143  0.77182540  0.69444444       0.002
   0.28571429  0.75992063  0.11111111       0.002
   0.32142857  0.75595238  0.91666667       0.002
   0.42857143  0.74404762  0.33333333       0.002
   0.46428571  0.74007937  0.13888889       0.002
   0.57142857  0.72817460  0.55555556       0.002
   0.60714286  0.72420635  0.36111111       0.002
   0.71428571  0.71230159  0.77777778       0.002
   0.75000000  0.70833333  0.58333333       0.002
   0.85714286  0.69642857  1.00000000       0.002
   0.89285714  0.69246032  0.80555556       0.002
   1.00000000  0.68055556  0.22222222       0.001
   0.03571429  0.67658730  0.02777778       0.002
   0.17857143  0.66071429  0.25000000       0.002
   0.32142857  0.64484127  0.47222222       0.002
   0.42857143  0.63293651  0.88888889       0.002
   0.46428571  0.62896825  0.69444444       0.002
   0.57142857  0.61706349  0.11111111       0.002
   0.60714286  0.61309524  0.91666667       0.002
   0.71428571  0.60119048  0.33333333       0.002
   0.75000000  0.59722222  0.13888889       0.002
   0.85714286  0.58531746  0.55555556       0.002
   0.89285714  0.58134921  0.36111111       0.002
   1.00000000  0.56944444  0.77777778       0.001
   0.03571429  0.56547619  0.58333333       0.002
   0.17857143  0.54960317  0.80555556       0.002
   0.32142857  0.53373016  0.02777778       0.002
   0.46428571  0.51785714  0.25000000       0.002
   0.57142857  0.50595238  0.66666667       0.002
   0.60714286  0.50198413  0.47222222       0.002
   0.71428571  0.49007937  0.88888889       0.002
   0.75000000  0.48611111  0.69444444       0.002
   0.85714286  0.47420635  0.11111111       0.002
   0.89285714  0.47023810  0.91666667       0.002
   1.00000000  0.45833333  0.33333333       0.001
   0.03571429  0.45436508  0.13888889       0.002
   0.17857143  0.43849206  0.36111111       0.002
   0.32142857  0.42261905  0.58333333       0.002
   0.46428571  0.40674603  0.80555556       0.002
   0.60714286  0.39087302  0.02777778       0.002
   0.71428571  0.37896825  0.44444444       0.002
   0.75000000  0.37500000  0.25000000       0.002
   0.85714286  0.36309524  0.66666667       0.002
   0.89285714  0.35912698  0.47222222       0.002
   1.00000000  0.34722222  0.88888889       0.001
   0.03571429  0.34325397  0.69444444       0.002
   0.17857143  0.32738095  0.91666667       0.002
   0.32142857  0.31150794  0.13888889       0.002
   0.46428571  0.29563492  0.36111111       0.002
   0.60714286  0.27976190  0.58333333       0.002
   0.75000000  0.26388889  0.80555556       0.002
   0.85714286  0.25198413  0.22222222       0.002
   0.89285714  0.24801587  0.02777778       0.002
   1.00000000  0.23611111  0.44444444       0.001
   0.03571429  0.23214286  0.25000000       0.002
   0.17857143  0.21626984  0.47222222       0.002
   0.32142857  0.20039683  0.69444444       0.002
   0.46428571  0.18452381  0.91666667       0.002
   0.60714286  0.16865079  0.13888889       0.002
   0.75000000  0.15277778  0.36111111       0.002
   0.89285714  0.13690476  0.58333333       0.002
   1.00000000  0.12500000  1.00000000       0.001
   0.03571429  0.12103175  0.80555556       0.002
   0.17857143  0.10515873  0.02777778       0.002
   0.32142857  0.08928571  0.25000000       0.002
   0.46428571  0.07341270  0.47222222       0.002
   0.60714286  0.05753968  0.69444444       0.002
   0.75000000  0.04166667  0.91666667       0.002
   0.89285714  0.02579365  0.13888889       0.002
   1.00000000  0.01388889  0.55555556       0.001
   0.14285714  0.02579365  0.38888889       0.002
   0.28571429  0.00992063  0.61111111       0.002
   0.42857143  0.99404762  0.83333333       0.002
   0.57142857  0.97817460  0.05555556       0.002
   0.71428571  0.96230159  0.27777778       0.002
   0.85714286  0.94642857  0.50000000       0.002
   1.00000000  0.93055556  0.72222222       0.001
   0.14285714  0.91468254  0.94444444       0.002
   0.28571429  0.89880952  0.16666667       0.002
   0.42857143  0.88293651  0.38888889       0.002
   0.57142857  0.86706349  0.61111111       0.002
   0.71428571  0.85119048  0.83333333       0.002
   0.85714286  0.83531746  0.05555556       0.002
   1.00000000  0.81944444  0.27777778       0.001
   0.28571429  0.78769841  0.72222222       0.002
   0.42857143  0.77182540  0.94444444       0.002
   0.57142857  0.75595238  0.16666667       0.002
   0.71428571  0.74007937  0.38888889       0.002
   0.85714286  0.72420635  0.61111111       0.002
   1.00000000  0.70833333  0.83333333       0.001
   0.42857143  0.66071429  0.50000000       0.002
   0.57142857  0.64484127  0.72222222       0.002
   0.71428571  0.62896825  0.94444444       0.002
   0.85714286  0.61309524  0.16666667       0.002
   1.00000000  0.59722222  0.38888889       0.001
   0.57142857  0.53373016  0.27777778       0.002
   0.71428571  0.51785714  0.50000000       0.002
   0.85714286  0.50198413  0.72222222       0.002
   1.00000000  0.48611111  0.94444444       0.001
   0.71428571  0.40674603  0.05555556       0.002
   0.85714286  0.39087302  0.27777778       0.002
   1.00000000  0.37500000  0.50000000       0.001
   0.85714286  0.27976190  0.83333333       0.002
   1.00000000  0.26388889  0.05555556       0.001
   1.00000000  0.15277778  0.61111111       0.001
   1.00000000  0.04166667  0.16666667       0.001
 
 position of ions in fractional coordinates (direct lattice) 
   0.75000000  0.50000000  0.25000000
   0.50000000  0.00000000  0.50000000
   0.25000000  0.50000000  0.75000000
   0.00000000  0.00000000  0.00000000
 
 position of ions in cartesian coordinates  (Angst):
   0.00000000  1.83000000  1.83000000
   1.83000000  0.00000000  1.83000000
   0.00000000  0.00000000  3.66000000
   0.00000000  0.00000000  0.00000000
 


--------------------------------------------------------------------------------------------------------


 k-point  1 :   0.0357 0.9544 0.1389  plane waves:     487
 k-point  2 :   0.0714 0.9504 0.9444  plane waves:     487
 k-point  3 :   0.1071 0.9464 0.7500  plane waves:     489
 k-point  4 :   0.1429 0.9425 0.5556  plane waves:     495
 k-point  5 :   0.1786 0.9385 0.3611  plane waves:     489
 k-point  6 :   0.2143 0.9345 0.1667  plane waves:     483
 k-point  7 :   0.2500 0.9306 0.9722  plane waves:     481
 k-point  8 :   0.2857 0.9266 0.7778  plane waves:     486
 k-point  9 :   0.3214 0.9226 0.5833  plane waves:     488
 k-point 10 :   0.3571 0.9187 0.3889  plane waves:     480
 k-point 11 :   0.3929 0.9147 0.1944  plane waves:     487
 k-point 12 :   0.4286 0.9107 1.0000  plane waves:     478
 k-point 13 :   0.4643 0.9067 0.8056  plane waves:     478
 k-point 14 :   0.5000 0.9028 0.6111  plane waves:     480
 k-point 15 :   0.5357 0.8988 0.4167  plane waves:     483
 k-point 16 :   0.5714 0.8948 0.2222  plane waves:     483
 k-point 17 :   0.6071 0.8909 0.0278  plane waves:     483
 k-point 18 :   0.6429 0.8869 0.8333  plane waves:     485
 k-point 19 :   0.6786 0.8829 0.6389  plane waves:     482
 k-point 20 :   0.7143 0.8790 0.4444  plane waves:     490
 k-point 21 :   0.7500 0.8750 0.2500  plane waves:     494
 k-point 22 :   0.7857 0.8710 0.0556  plane waves:     494
 k-point 23 :   0.8214 0.8671 0.8611  plane waves:     486
 k-point 24 :   0.8571 0.8631 0.6667  plane waves:     493
 k-point 25 :   0.8929 0.8591 0.4722  plane waves:     497
 k-point 26 :   0.9286 0.8552 0.2778  plane waves:     490
 k-point 27 :   0.9643 0.8512 0.0833  plane waves:     488
 k-point 28 :   1.0000 0.8472 0.8889  plane waves:     483
 k-point 29 :   0.0357 0.8433 0.6944  plane waves:     495
 k-point 30 :   0.0714 0.8393 0.5000  plane waves:     501
 k-point 31 :   0.1071 0.8353 0.3056  plane waves:     488
 k-point 32 :   0.1429 0.8313 0.1111  plane waves:     489
 k-point 33 :   0.1786 0.8274 0.9167  plane waves:     480
 k-point 34 :   0.2143 0.8234 0.7222  plane waves:     485
 k-point 35 :   0.2500 0.8194 0.5278  plane waves:     492
 k-point 36 :   0.2857 0.8155 0.3333  plane waves:     486
 k-point 37 :   0.3214 0.8115 0.1389  plane waves:     482
 k-point 38 :   0.3571 0.8075 0.9444  plane waves:     483
 k-point 39 :   0.3929 0.8036 0.7500  plane waves:     490
 k-point 40 :   0.4286 0.7996 0.5556  plane waves:     479
 k-point 41 :   0.4643 0.7956 0.3611  plane waves:     481
 k-point 42 :   0.5000 0.7917 0.1667  plane waves:     481
 k-point 43 :   0.5357 0.7877 0.9722  plane waves:     482
 k-point 44 :   0.5714 0.7837 0.7778  plane waves:     481
 k-point 45 :   0.6071 0.7798 0.5833  plane waves:     486
 k-point 46 :   0.6429 0.7758 0.3889  plane waves:     492
 k-point 47 :   0.6786 0.7718 0.1944  plane waves:     493
 k-point 48 :   0.7143 0.7679 1.0000  plane waves:     489
 k-point 49 :   0.7500 0.7639 0.8056  plane waves:     491
 k-point 50 :   0.7857 0.7599 0.6111  plane waves:     493
 k-point 51 :   0.8214 0.7560 0.4167  plane waves:     489
 k-point 52 :   0.8571 0.7520 0.2222  plane waves:     494
 k-point 53 :   0.8929 0.7480 0.0278  plane waves:     485
 k-point 54 :   0.9286 0.7440 0.8333  plane waves:     489
 k-point 55 :   0.9643 0.7401 0.6389  plane waves:     498
 k-point 56 :   1.0000 0.7361 0.4444  plane waves:     497
 k-point 57 :   0.0357 0.7321 0.2500  plane waves:     494
 k-point 58 :   0.0714 0.7282 0.0556  plane waves:     486
 k-point 59 :   0.1071 0.7242 0.8611  plane waves:     488
 k-point 60 :   0.1786 0.7163 0.4722  plane waves:     493
 k-point 61 :   0.2143 0.7123 0.2778  plane waves:     491
 k-point 62 :   0.2500 0.7083 0.0833  plane waves:     485
 k-point 63 :   0.2857 0.7044 0.8889  plane waves:     482
 k-point 64 :   0.3214 0.7004 0.6944  plane waves:     480
 k-point 65 :   0.3571 0.6964 0.5000  plane waves:     478
 k-point 66 :   0.3929 0.6925 0.3056  plane waves:     484
 k-point 67 :   0.4286 0.6885 0.1111  plane waves:     481
 k-point 68 :   0.4643 0.6845 0.9167  plane waves:     480
 k-point 69 :   0.5000 0.6806 0.7222  plane waves:     484
 k-point 70 :   0.5357 0.6766 0.5278  plane waves:     484
 k-point 71 :   0.5714 0.6726 0.3333  plane waves:     485
 k-point 72 :   0.6071 0.6687 0.1389  plane waves:     483
 k-point 73 :   0.6429 0.6647 0.9444  plane waves:     483
 k-point 74 :   0.6786 0.6607 0.7500  plane waves:     493
 k-point 75 :   0.7143 0.6567 0.5556  plane waves:     489
 k-point 76 :   0.7500 0.6528 0.3611  plane waves:     492
 k-point 77 :   0.7857 0.6488 0.1667  plane waves:     492
 k-point 78 :   0.8214 0.6448 0.9722  plane waves:     494
 k-point 79 :   0.8571 0.6409 0.7778  plane waves:     498
 k-point 80 :   0.8929 0.6369 0.5833  plane waves:     500
 k-point 81 :   0.9286 0.6329 0.3889  plane waves:     497
 k-point 82 :   0.9643 0.6290 0.1944  plane waves:     493
 k-point 83 :   1.0000 0.6250 1.0000  plane waves:     482
 k-point 84 :   0.0357 0.6210 0.8056  plane waves:     491
 k-point 85 :   0.0714 0.6171 0.6111  plane waves:     500
 k-point 86 :   0.1071 0.6131 0.4167  plane waves:     497
 k-point 87 :   0.1786 0.6052 0.0278  plane waves:     497
 k-point 88 :   0.2143 0.6012 0.8333  plane waves:     490
 k-point 89 :   0.2500 0.5972 0.6389  plane waves:     487
 k-point 90 :   0.3214 0.5893 0.2500  plane waves:     489
 k-point 91 :   0.3571 0.5853 0.0556  plane waves:     485
 k-point 92 :   0.3929 0.5813 0.8611  plane waves:     485
 k-point 93 :   0.4286 0.5774 0.6667  plane waves:     475
 k-point 94 :   0.4643 0.5734 0.4722  plane waves:     478
[...]

 k-point   515 :       1.0000    0.4861    0.9444
  band No.  band energies     occupation 
      1       1.9663      2.00000
      2       3.0418      2.00000
      3       3.9573      2.00000
      4       4.2889      2.00000
      5       5.1869      2.00000
      6       7.0030      2.00000
      7       7.0065      2.00000
      8       7.3860      2.00000
      9       7.4289      2.00000
     10       7.6283      2.00000
     11       7.6420      2.00000
     12       7.7470      2.00000
     13       7.8498      2.00000
     14       8.5438      2.00352
     15       8.5477      2.00381
     16       8.9280      1.72133
     17       9.0037      1.17620
     18       9.2364     -0.06042
     19       9.2576     -0.06972
     20      10.6448     -0.00000

 k-point   516 :       0.7143    0.4067    0.0556
  band No.  band energies     occupation 
      1       2.8790      2.00000
      2       4.9988      2.00000
      3       5.5352      2.00000
      4       5.6696      2.00000
      5       6.1621      2.00000
      6       6.2389      2.00000
      7       6.3464      2.00000
      8       6.5926      2.00000
      9       7.0241      2.00000
     10       7.1020      2.00000
     11       7.1366      2.00000
     12       7.6511      2.00000
     13       7.9059      2.00000
     14       8.2213      2.00000
     15       8.4525      2.00040
     16       8.6646      2.02884
     17       9.0782      0.56391
     18       9.1895      0.00809
     19      10.2330     -0.00000
     20      10.5867     -0.00000

 k-point   517 :       0.8571    0.3909    0.2778
  band No.  band energies     occupation 
      1       2.5850      2.00000
      2       4.1835      2.00000
      3       4.2981      2.00000
      4       5.0755      2.00000
      5       5.7107      2.00000
      6       6.4006      2.00000
      7       6.7614      2.00000
      8       7.0617      2.00000
      9       7.2828      2.00000
     10       7.3362      2.00000
     11       7.5951      2.00000
     12       7.7199      2.00000
     13       7.8342      2.00000
     14       8.0465      2.00000
     15       8.1793      2.00000
     16       8.6697      2.03085
     17       8.9121      1.80520
     18       9.1489      0.14117
     19       9.3581     -0.04000
     20       9.5960     -0.00041

 k-point   518 :       1.0000    0.3750    0.5000
  band No.  band energies     occupation 
      1       2.6942      2.00000
      2       3.5965      2.00000
      3       4.3687      2.00000
      4       4.9203      2.00000
      5       5.7691      2.00000
      6       6.2506      2.00000
      7       6.6195      2.00000
      8       6.9652      2.00000
      9       7.2300      2.00000
     10       7.4751      2.00000
     11       7.6563      2.00000
     12       7.7238      2.00000
     13       7.9461      2.00000
     14       8.0739      2.00000
     15       8.2971      2.00000
     16       8.3647      2.00003
     17       8.4615      2.00050
     18       9.0340      0.92131
     19       9.0862      0.50545
     20       9.2554     -0.06920

 k-point   519 :       0.8571    0.2798    0.8333
  band No.  band energies     occupation 
      1       1.3447      2.00000
      2       4.6446      2.00000
      3       4.8454      2.00000
      4       5.1953      2.00000
      5       6.0126      2.00000
      6       6.3908      2.00000
      7       6.9461      2.00000
      8       7.0511      2.00000
      9       7.2706      2.00000
     10       7.4009      2.00000
     11       7.6111      2.00000
     12       7.7530      2.00000
     13       7.8030      2.00000
     14       7.9260      2.00000
     15       8.1282      2.00000
     16       8.4755      2.00072
     17       8.8897      1.90146
     18       9.0629      0.68307
     19       9.5745     -0.00071
     20      10.2370     -0.00000

 k-point   520 :       1.0000    0.2639    0.0556
  band No.  band energies     occupation 
      1       0.9486      2.00000
      2       3.7668      2.00000
      3       4.1343      2.00000
      4       4.6473      2.00000
      5       5.5175      2.00000
      6       7.1323      2.00000
      7       7.2478      2.00000
      8       7.5080      2.00000
      9       7.5199      2.00000
     10       7.5973      2.00000
     11       7.6266      2.00000
     12       7.6399      2.00000
     13       7.6697      2.00000
     14       7.9586      2.00000
     15       8.6199      2.01479
     16       8.6690      2.03057
     17       8.8518      2.00949
     18       8.9837      1.33831
     19       9.2634     -0.07060
     20      10.1841     -0.00000

 k-point   521 :       1.0000    0.1528    0.6111
  band No.  band energies     occupation 
      1       1.5215      2.00000
      2       3.5598      2.00000
      3       4.7075      2.00000
      4       5.5961      2.00000
      5       6.2448      2.00000
      6       6.3839      2.00000
      7       6.6514      2.00000
      8       6.8636      2.00000
      9       7.0739      2.00000
     10       7.4524      2.00000
     11       7.6677      2.00000
     12       7.6874      2.00000
     13       7.8463      2.00000
     14       7.9546      2.00000
     15       8.2252      2.00000
     16       8.4406      2.00029
     17       8.6360      2.01912
     18       8.6594      2.02689
     19       8.9496      1.58792
     20       9.4471     -0.01094

 k-point   522 :       1.0000    0.0417    0.1667
  band No.  band energies     occupation 
      1       0.5001      2.00000
      2       4.1260      2.00000
      3       4.3781      2.00000
      4       5.5254      2.00000
      5       5.7091      2.00000
      6       6.5279      2.00000
      7       7.2326      2.00000
      8       7.2983      2.00000
      9       7.3555      2.00000
     10       7.5089      2.00000
     11       7.5154      2.00000
     12       7.5443      2.00000
     13       7.6746      2.00000
     14       8.0942      2.00000
     15       8.3568      2.00002
     16       8.5491      2.00393
     17       8.8172      2.05715
     18       8.8468      2.01897
     19       9.1774      0.03972
     20      10.7087     -0.00000


--------------------------------------------------------------------------------------------------------


 soft charge-density along one line, spin component           1
         0         1         2         3         4         5         6         7         8         9
 total charge-density along one line
 
 pseudopotential strength for first ion, spin component:           1
 -0.679   0.004   0.012  -0.004  -0.000  -1.315   0.004   0.011
  0.004  -0.701   0.002  -0.001  -0.008   0.004  -1.335   0.002
  0.012   0.002  -0.680  -0.002   0.000   0.011   0.002  -1.315
 -0.004  -0.001  -0.002  -0.701  -0.008  -0.004  -0.001  -0.002
 -0.000  -0.008   0.000  -0.008  -0.645  -0.000  -0.007   0.000
 -1.315   0.004   0.011  -0.004  -0.000  -1.891   0.004   0.011
  0.004  -1.335   0.002  -0.001  -0.007   0.004  -1.911   0.002
  0.011   0.002  -1.315  -0.002   0.000   0.011   0.002  -1.891
 -0.004  -0.001  -0.002  -1.335  -0.007  -0.004  -0.001  -0.002
 -0.000  -0.007   0.000  -0.007  -1.282  -0.000  -0.007   0.000
  0.003  -0.002   0.004   0.002  -0.000   0.003  -0.002   0.003
  0.005  -0.003   0.006   0.003  -0.000   0.005  -0.003   0.006
 -0.003  -0.014  -0.002   0.000   0.001  -0.003  -0.013  -0.002
  0.000  -0.002  -0.016   0.002  -0.000   0.000  -0.002  -0.015
  0.003   0.000   0.002  -0.014   0.001   0.003   0.000   0.002
 -0.003  -0.016  -0.002   0.000   0.001  -0.002  -0.016  -0.002
  0.000  -0.002  -0.018   0.002  -0.000   0.000  -0.002  -0.018
  0.003   0.000   0.002  -0.016   0.001   0.002   0.000   0.002
 total augmentation occupancy for first ion, spin component:           1
  1.759   0.020  -0.066  -0.020  -0.000  -0.684   0.038   0.045  -0.038   0.000   0.067  -0.013  -0.040   0.002   0.040  -0.001
  0.020   1.746  -0.055   0.026   0.021   0.038  -0.672   0.031   0.034  -0.019  -0.067   0.014   0.028  -0.048   0.005  -0.007
 -0.066  -0.055   2.595   0.055   0.000   0.047   0.032  -1.127  -0.032  -0.000  -0.002   0.003  -0.046   0.024   0.046  -0.001
 -0.020   0.026   0.055   1.746   0.021  -0.038   0.034  -0.031  -0.672  -0.019   0.067  -0.014   0.005   0.048   0.028   0.000
 -0.000   0.021   0.000   0.021   2.698   0.000  -0.019  -0.000  -0.019  -1.175   0.000  -0.000   0.034   0.000   0.034  -0.002
 -0.684   0.038   0.047  -0.038   0.000   1.136  -0.073   0.013   0.073  -0.000  -0.105   0.014   0.010  -0.001  -0.010  -0.001
  0.038  -0.672   0.032   0.034  -0.019  -0.073   1.122   0.002  -0.076  -0.018   0.106  -0.014  -0.056   0.014  -0.002   0.006
  0.045   0.031  -1.127  -0.031  -0.000   0.013   0.002   1.260  -0.002   0.000   0.001  -0.001   0.012  -0.051  -0.012  -0.000
 -0.038   0.034  -0.032  -0.672  -0.019   0.073  -0.076  -0.002   1.122  -0.018  -0.106   0.014  -0.002  -0.014  -0.056  -0.000
  0.000  -0.019  -0.000  -0.019  -1.175  -0.000  -0.018   0.000  -0.018   1.281  -0.000   0.000  -0.012  -0.000  -0.012   0.002
  0.067  -0.067  -0.002   0.067   0.000  -0.105   0.106   0.001  -0.106  -0.000   2.134  -0.238  -0.001  -0.063   0.001  -0.000
 -0.013   0.014   0.003  -0.014  -0.000   0.014  -0.014  -0.001   0.014   0.000  -0.238   0.032  -0.001   0.004   0.001   0.000
 -0.040   0.028  -0.046   0.005   0.034   0.010  -0.056   0.012  -0.002  -0.012  -0.001  -0.001   0.292   0.012  -0.014  -0.026
  0.002  -0.048   0.024   0.048   0.000  -0.001   0.014  -0.051  -0.014  -0.000  -0.063   0.004   0.012   0.294  -0.012  -0.001
  0.040   0.005   0.046   0.028   0.034  -0.010  -0.002  -0.012  -0.056  -0.012   0.001   0.001  -0.014  -0.012   0.292   0.001
 -0.001  -0.007  -0.001   0.000  -0.002  -0.001   0.006  -0.000  -0.000   0.002  -0.000   0.000  -0.026  -0.001   0.001   0.003
 -0.001   0.001  -0.007  -0.001  -0.000   0.000  -0.001   0.006   0.001   0.000   0.005  -0.001  -0.001  -0.026   0.001   0.000
  0.001   0.000   0.001  -0.007  -0.002   0.001  -0.000   0.000   0.006   0.002   0.000  -0.000   0.001   0.001  -0.026  -0.000


------------------------ aborting loop because EDIFF is reached ----------------------------------------



 ----------------------------------------------------------------------------- 
|                                                                             |
|  ADVICE TO THIS USER RUNNING 'VASP/VAMP'   (HEAR YOUR MASTER'S VOICE ...):  |
|                                                                             |
|      Your highest band is occupied at some k-points! Unless you are         |
|      performing a calculation for an insulator or semiconductor, without    |
|      unoccupied bands, you have included TOO FEW BANDS!! Please increase    |
|      the parameter NBANDS in file INCAR to ensure that the highest band     |
|      is unoccupied at all k-points. It is always recommended to             |
|      include a few unoccupied bands to accelerate the convergence of        |
|      molecular dynamics runs (even for insulators or semiconductors).       |
|      Because the presence of unoccupied bands improves wavefunction         |
|      prediction, and helps to suppress 'band-crossings.'                    |
|      Following all k-points will be listed (with the Fermi weights of       |
|      the highest band given in paranthesis) ... :                           |
|                                                                             |
|                         55       (-0.02119)                                 |
|                         56       (-0.03431)                                 |
|                         80       (-0.02940)                                 |
|                         81       (-0.02169)                                 |
|                         85       (-0.03062)                                 |
|                        109       (-0.02382)                                 |
|                        110       (-0.02510)                                 |
|                        132       (-0.03083)                                 |
|                        133       (-0.01464)                                 |
|                        137       (-0.02287)                                 |
|                        159       (-0.03268)                                 |
|                        180       (-0.02595)                                 |
|                        224       (-0.03110)                                 |
|                        246       (-0.02508)                                 |
|                        266       (-0.01242)                                 |
|                        287       (-0.03531)                                 |
|                        288       (-0.03156)                                 |
|                        305       (-0.03097)                                 |
|                        322       (-0.01005)                                 |
|                        325       (-0.02983)                                 |
|                        326       (-0.02580)                                 |
|                        359       (-0.01925)                                 |
|                        416       (-0.03519)                                 |
|                        438       (-0.01259)                                 |
|                        439       (-0.02237)                                 |
|                        441       (-0.03453)                                 |
|                        451       (-0.02632)                                 |
|                        470       (-0.02669)                                 |
|                        486       (-0.03236)                                 |
|                        511       (-0.03136)                                 |
|                        518       (-0.03460)                                 |
|                                                                             |
|      The total occupancy of band no.    20 is  -0.00272 electrons ...       |
|                                                                             |
 ----------------------------------------------------------------------------- 

    CHARGE:  cpu time    6.8770: real time    6.8918
    FORLOC:  cpu time    0.0180: real time    0.0181
    FORNL :  cpu time   14.5628: real time   14.5920
    STRESS:  cpu time   18.8451: real time   18.9146
    FORCOR:  cpu time    0.1710: real time    0.1717
    FORHAR:  cpu time    0.0460: real time    0.0464
    MIXING:  cpu time    0.0090: real time    0.0088
    OFIELD:  cpu time    0.0000: real time    0.0001

  FORCE on cell =-STRESS in cart. coord.  units (eV):
  Direction    XX          YY          ZZ          XY          YZ          ZX
  --------------------------------------------------------------------------------------
  Alpha Z   176.79580   176.79580   176.79580
  Ewald    -821.12045  -821.12045  -838.44192    13.99295     0.39770    -0.39770
  Hartree   174.38170   174.38155   147.84941    21.72581     0.81151    -0.81159
  E(xc)    -164.65455  -164.65448  -164.16895    -0.40131    -0.03780     0.03782
  Local    -114.77173  -114.77166   -70.55649   -33.92501    -2.26881     2.26889
  n-local   -32.47554   -32.44244   -31.67276    -0.74655     0.22141    -0.28523
  augment   470.95528   470.95565   469.63634    -0.23655     0.44800    -0.44780
  Kinetic   307.63823   307.56873   306.74624     0.25103     0.34672    -0.33998
  Fock        0.00000     0.00000     0.00000     0.00000     0.00000     0.00000
  -------------------------------------------------------------------------------------
  Total      -3.26928    -3.26928    -3.81234     0.66045    -0.05270     0.05270
  in kB    -106.83659  -106.83659  -124.58313    21.58273    -1.72203     1.72203
  external pressure =     -112.75 kB  Pullay stress =        0.00 kB


 VOLUME and BASIS-vectors are now :
 -----------------------------------------------------------------------------
  energy-cutoff  :      267.97
  volume of cell :       49.03
      direct lattice vectors                 reciprocal lattice vectors
     1.830000000  1.830000000  0.000000000     0.204918033  0.341530055  0.068306011
    -3.660000000  1.830000000  1.830000000    -0.136612022  0.136612022  0.136612022
     1.830000000 -1.830000000  3.660000000     0.068306011 -0.068306011  0.204918033

  length of vectors
     2.588010819  4.482566229  4.482566229     0.404103810  0.236618963  0.226545409


 FORCES acting on ions
    electron-ion (+dipol)            ewald-force                    non-local-force                 convergence-correction
 -----------------------------------------------------------------------------------------------
   0.550E+01 -.550E+01 0.410E+02   -.533E+01 0.533E+01 -.404E+02   -.175E+00 0.175E+00 -.553E-01   0.142E-02 -.143E-02 0.540E-02
   -.986E-13 0.555E-12 -.653E-12   0.926E-14 -.796E-14 0.457E-14   0.132E-22 -.132E-22 0.000E+00   -.168E-13 0.470E-13 -.454E-14
   -.550E+01 0.550E+01 -.410E+02   0.533E+01 -.533E+01 0.404E+02   0.175E+00 -.175E+00 0.553E-01   -.142E-02 0.143E-02 -.540E-02
   0.744E-14 0.708E-14 -.395E-14   0.699E-14 -.591E-14 -.911E-16   -.199E-22 0.662E-23 0.000E+00   -.175E-14 -.340E-14 0.689E-14
 -----------------------------------------------------------------------------------------------
   -.987E-12 0.147E-11 0.169E-12   0.699E-14 0.305E-15 0.701E-14   -.278E-16 0.662E-23 0.000E+00   0.176E-13 0.356E-13 -.410E-13
 
 
 POSITION                                       TOTAL-FORCE (eV/Angst)
 -----------------------------------------------------------------------------------
      0.00000      1.83000      1.83000         0.003388     -0.003388      0.553322
      1.83000      0.00000      1.83000        -0.000000     -0.000000     -0.000000
      0.00000      0.00000      3.66000        -0.003388      0.003388     -0.553322
      0.00000      0.00000      0.00000        -0.000000     -0.000000     -0.000000
 -----------------------------------------------------------------------------------
    total drift:                               -0.000000      0.000000      0.000000


--------------------------------------------------------------------------------------------------------



  FREE ENERGIE OF THE ION-ELECTRON SYSTEM (eV)
  ---------------------------------------------------
  free  energy   TOTEN  =       -33.38901084 eV

  energy  without entropy=      -33.37790783  energy(sigma->0) =      -33.38530984
 


--------------------------------------------------------------------------------------------------------


    POTLOK:  cpu time    0.2140: real time    0.2246


--------------------------------------------------------------------------------------------------------


 writing wavefunctions
     LOOP+:  cpu time 1054.6517: real time 1059.3179
    4ORBIT:  cpu time    0.0000: real time    0.0000

 total amount of memory used by VASP MPI-rank0   208724. kBytes
=======================================================================

   base      :      30000. kBytes
   nonl-proj :      75952. kBytes
   fftplans  :       2280. kBytes
   grid      :       4048. kBytes
   one-center:         62. kBytes
   wavefun   :      96382. kBytes
 
  
  
 General timing and accounting informations for this job:
 ========================================================
  
                  Total CPU time used (sec):     1060.859
                            User time (sec):     1060.416
                          System time (sec):        0.443
                         Elapsed time (sec):     1066.083
  
                   Maximum memory used (kb):      212140.
                   Average memory used (kb):           0.
  
                          Minor page faults:        54695
                          Major page faults:            0
                 Voluntary context switches:          179
