 vasp.6.0.0 18Apr17 (build Mar 23 2018 09:59:13) complex                        
  
 executed on             LinuxIFC date 2018.06.18  11:00:52
 running on    1 total cores
 distrk:  each k-point on    1 cores,    1 groups
 distr:  one band on NCORES_PER_BAND=   1 cores,    1 groups


--------------------------------------------------------------------------------------------------------


 INCAR:
 POTCAR:    PAW_PBE Co 02Aug2007                  
 POTCAR:    PAW_PBE V 08Apr2002                   
 POTCAR:    PAW_PBE Co 02Aug2007                  
   VRHFIN =Co: d8 s1                                                            
   LEXCH  = PE                                                                  
   EATOM  =   813.3670 eV,   59.7808 Ry                                         
                                                                                
   TITEL  = PAW_PBE Co 02Aug2007                                                
   LULTRA =        F    use ultrasoft PP ?                                      
   IUNSCR =        1    unscreen: 0-lin 1-nonlin 2-no                           
   RPACOR =    2.000    partial core radius                                     
   POMASS =   58.933; ZVAL   =    9.000    mass and valenz                      
   RCORE  =    2.300    outmost cutoff radius                                   
   RWIGS  =    2.460; RWIGS  =    1.302    wigner-seitz radius (au A)           
   ENMAX  =  267.968; ENMIN  =  200.976 eV                                      
   RCLOC  =    1.203    cutoff for local pot                                    
   LCOR   =        T    correct aug charges                                     
   LPAW   =        T    paw PP                                                  
   EAUG   =  477.818                                                            
   DEXC   =    0.000                                                            
   RMAX   =    2.360    core radius for proj-oper                               
   RAUG   =    1.300    factor for augmentation sphere                          
   RDEP   =    2.393    radius for radial grids                                 
   RDEPT  =    1.864    core radius for aug-charge                              
                                                                                
   Atomic configuration                                                         
    9 entries                                                                   
     n  l   j            E        occ.                                          
     1  0  0.50     -7587.6674   2.0000                                         
     2  0  0.50      -893.6084   2.0000                                         
     2  1  1.50      -764.5805   6.0000                                         
     3  0  0.50       -97.5973   2.0000                                         
     3  1  1.50       -60.9648   6.0000                                         
     3  2  2.50        -4.2382   8.0000                                         
     4  0  0.50        -4.3746   1.0000                                         
     4  1  1.50        -4.0817   0.0000                                         
     4  3  2.50        -1.3606   0.0000                                         
   Description                                                                  
     l       E           TYP  RCUT    TYP  RCUT                                 
     2     -4.2382362     23  2.300                                             
     2     -5.5988188     23  2.300                                             
     0     -4.3745797     23  2.300                                             
     0      5.7660125     23  2.300                                             
     1     -2.7211652     23  2.300                                             
     1     16.9860234     23  2.300                                             
  local pseudopotential read in
  partial core-charges read in
  partial kinetic energy density read in
  atomic valenz-charges read in
  non local Contribution for L=           2  read in
    real space projection operators read in
  non local Contribution for L=           2  read in
    real space projection operators read in
  non local Contribution for L=           0  read in
    real space projection operators read in
  non local Contribution for L=           0  read in
    real space projection operators read in
  non local Contribution for L=           1  read in
    real space projection operators read in
  non local Contribution for L=           1  read in
    real space projection operators read in
    PAW grid and wavefunctions read in
 
   number of l-projection  operators is LMAX  =           6
   number of lm-projection operators is LMMAX =          18
 
 POTCAR:    PAW_PBE V 08Apr2002                   
   VRHFIN =V: p6 d4 s1                                                          
   LEXCH  = PE                                                                  
   EATOM  =   170.8679 eV,   12.5584 Ry                                         
                                                                                
   TITEL  = PAW_PBE V 08Apr2002                                                 
   LULTRA =        F    use ultrasoft PP ?                                      
   IUNSCR =        1    unscreen: 0-lin 1-nonlin 2-no                           
   RPACOR =    2.000    partial core radius                                     
   POMASS =   50.941; ZVAL   =    5.000    mass and valenz                      
   RCORE  =    2.700    outmost cutoff radius                                   
   RWIGS  =    2.500; RWIGS  =    1.323    wigner-seitz radius (au A)           
   ENMAX  =  192.543; ENMIN  =  144.408 eV                                      
   RCLOC  =    1.779    cutoff for local pot                                    
   LCOR   =        T    correct aug charges                                     
   LPAW   =        T    paw PP                                                  
   EAUG   =  358.662                                                            
   DEXC   =    0.000                                                            
   RMAX   =    2.768    core radius for proj-oper                               
   RAUG   =    1.300    factor for augmentation sphere                          
   RDEP   =    2.762    radius for radial grids                                 
   RDEPT  =    2.240    core radius for aug-charge                              
                                                                                
   Atomic configuration                                                         
    9 entries                                                                   
     n  l   j            E        occ.                                          
     1  0  0.50     -5360.7193   2.0000                                         
     2  0  0.50      -598.4546   2.0000                                         
     2  1  1.50      -499.0155   6.0000                                         
     3  0  0.50       -66.5711   2.0000                                         
     3  1  1.50       -40.5282   6.0000                                         
     3  2  2.50        -2.4291   4.0000                                         
     4  0  0.50        -3.8743   1.0000                                         
     4  1  0.50        -2.7212   0.0000                                         
     4  3  2.50        -1.3606   0.0000                                         
   Description                                                                  
     l       E           TYP  RCUT    TYP  RCUT                                 
     2     -2.4290901     23  2.700                                             
     2     -3.7896727     23  2.700                                             
     0     -3.8742752     23  2.700                                             
     0     27.2116520     23  2.700                                             
     1     -2.7211652     23  2.700                                             
     1     27.2116520     23  2.700                                             
  local pseudopotential read in
  partial core-charges read in
  partial kinetic energy density read in
  atomic valenz-charges read in
  non local Contribution for L=           2  read in
    real space projection operators read in
  non local Contribution for L=           2  read in
    real space projection operators read in
  non local Contribution for L=           0  read in
    real space projection operators read in
  non local Contribution for L=           0  read in
    real space projection operators read in
  non local Contribution for L=           1  read in
    real space projection operators read in
  non local Contribution for L=           1  read in
    real space projection operators read in
    PAW grid and wavefunctions read in
 
   number of l-projection  operators is LMAX  =           6
   number of lm-projection operators is LMMAX =          18
 
  PAW_PBE Co 02Aug2007                  :
 energy of atom  1       EATOM= -813.3670
 kinetic energy error for atom=    0.0366 (will be added to EATOM!!)
  PAW_PBE V 08Apr2002                   :
 energy of atom  2       EATOM= -170.8679
 kinetic energy error for atom=    0.0066 (will be added to EATOM!!)
 
 
 POSCAR: Co  V                                   
  positions in cartesian coordinates
  No initial velocities read in
 exchange correlation table for  LEXCH =        8
   RHO(1)=    0.500       N(1)  =     2000
   RHO(2)=  100.500       N(2)  =     4000
 


--------------------------------------------------------------------------------------------------------


 ion  position               nearest neighbor table
   1  0.000  0.000  0.000-   4 2.60   2 2.60   3 2.60   4 2.60   3 2.60   4 2.60   2 2.60   2 2.60
                             4 2.60   2 2.60   3 2.60   3 2.60
   2  0.250  0.500  0.750-   1 2.60   1 2.60   3 2.60   4 2.60   1 2.60   4 2.60   3 2.60   1 2.60
                             3 2.60   3 2.60   4 2.60   4 2.60
   3  0.500  0.000  0.500-   2 2.60   1 2.60   2 2.60   4 2.60   1 2.60   2 2.60   4 2.60   2 2.60
                             4 2.60   1 2.60   4 2.60   1 2.60
   4  0.750  0.500  0.250-   3 2.60   1 2.60   2 2.60   3 2.60   2 2.60   3 2.60   1 2.60   1 2.60
                             3 2.60   1 2.60   2 2.60   2 2.60
 
  LATTYP: Found a body centered tetragonal cell.
 ALAT       =     3.6800000000
 C/A-ratio  =     2.0000000000
  
  Lattice vectors:
  
 A1 = (  -1.8400000000,   3.6800000000,  -1.8400000000)
 A2 = (   1.8400000000,   3.6800000000,   1.8400000000)
 A3 = (   1.8400000000,  -3.6800000000,  -1.8400000000)


Analysis of symmetry for initial positions (statically):
=====================================================================
 Subroutine PRICEL returns:
 Original cell was already a primitive cell.
 

 Routine SETGRP: Setting up the symmetry group for a 
 body centered tetragonal supercell.


 Subroutine GETGRP returns: Found 16 space group operations
 (whereof  8 operations were pure point group operations)
 out of a pool of 16 trial point group operations.


The static configuration has the point symmetry D_2d.
 The point group associated with its full space group is D_4h.


Analysis of symmetry for dynamics (positions and initial velocities):
=====================================================================
 Subroutine PRICEL returns:
 Original cell was already a primitive cell.
 

 Routine SETGRP: Setting up the symmetry group for a 
 body centered tetragonal supercell.


 Subroutine GETGRP returns: Found 16 space group operations
 (whereof  8 operations were pure point group operations)
 out of a pool of 16 trial point group operations.


The dynamic configuration has the point symmetry D_2d.
 The point group associated with its full space group is D_4h.


 Subroutine INISYM returns: Found 16 space group operations
 (whereof  8 operations are pure point group operations),
 and found     1 'primitive' translations

 
 
 KPOINTS: Server version 2018.05.22. K-point grid 
  k-points in reciprocal lattice
Space group operators:
 irot       det(A)        alpha          n_x          n_y          n_z        tau_x        tau_y        tau_z
    1     1.000000     0.000000     1.000000     0.000000     0.000000     0.000000     0.000000     0.000000
    2    -1.000000    90.000000     0.000000    -1.000000     0.000000     0.000000     0.000000     0.000000
    3     1.000000   180.000000     0.000000     1.000000     0.000000     0.000000     0.000000     0.000000
    4    -1.000000    90.000000     0.000000     1.000000     0.000000     0.000000     0.000000     0.000000
    5    -1.000000   180.000000     0.000000     0.000000     1.000000     0.000000     0.000000     0.000000
    6     1.000000   180.000000     0.707107     0.000000    -0.707107     0.000000     0.000000     0.000000
    7    -1.000000   180.000000     1.000000     0.000000     0.000000     0.000000     0.000000     0.000000
    8     1.000000   180.000000     0.707107     0.000000     0.707107     0.000000     0.000000     0.000000
    9    -1.000000     0.000000     1.000000     0.000000     0.000000    -0.750000     0.500000    -0.250000
   10     1.000000    90.000000     0.000000    -1.000000     0.000000    -0.750000     0.500000    -0.250000
   11    -1.000000   180.000000     0.000000     1.000000     0.000000    -0.750000     0.500000    -0.250000
   12     1.000000    90.000000     0.000000     1.000000     0.000000    -0.750000     0.500000    -0.250000
   13     1.000000   180.000000     0.000000     0.000000     1.000000    -0.750000     0.500000    -0.250000
   14    -1.000000   180.000000     0.707107     0.000000    -0.707107    -0.750000     0.500000    -0.250000
   15     1.000000   180.000000     1.000000     0.000000     0.000000    -0.750000     0.500000    -0.250000
   16    -1.000000   180.000000     0.707107     0.000000     0.707107    -0.750000     0.500000    -0.250000


--------------------------------------------------------------------------------------------------------




 Dimension of arrays:
   k-points           NKPTS =    177   k-points in BZ     NKDIM =    177   number of bands    NBANDS=     18
   number of dos      NEDOS =    301   number of ions     NIONS =      4
   non local maximal  LDIM  =      6   non local SUM 2l+1 LMDIM =     18
   total plane-waves  NPLWV =   9600
   max r-space proj   IRMAX =      1   max aug-charges    IRDMAX=  11880
   dimension x,y,z NGX =    20 NGY =   24 NGZ =   20
   dimension x,y,z NGXF=    40 NGYF=   48 NGZF=   40
   support grid    NGXF=    40 NGYF=   48 NGZF=   40
   ions per type =               2   2
   NGX,Y,Z   is equivalent  to a cutoff of   9.04,  8.85,  9.04 a.u.
   NGXF,Y,Z  is equivalent  to a cutoff of  18.07, 17.71, 18.07 a.u.

 SYSTEM =  unknown system                          
 POSCAR =  Co  V                                   

 Startparameter for this run:
   NWRITE =      2    write-flag & timer
   PREC   = a         normal or accurate (medium, high low for compatibility)
   ISTART =      0    job   : 0-new  1-cont  2-samecut
   ICHARG =      2    charge: 1-file 2-atom 10-const
   ISPIN  =      1    spin polarized calculation?
   LNONCOLLINEAR =      F non collinear calculations
   LSORBIT =      F    spin-orbit coupling
   INIWAV =      1    electr: 0-lowe 1-rand  2-diag
   LASPH  =      F    aspherical Exc in radial PAW
   METAGGA=      F    non-selfconsistent MetaGGA calc.

 Electronic Relaxation 1
   ENCUT  =  268.0 eV  19.70 Ry    4.44 a.u.   4.91  6.02  4.91*2*pi/ulx,y,z
   ENINI  =  268.0     initial cutoff
   ENAUG  =  477.8 eV  augmentation charge cutoff
   NELM   =     60;   NELMIN=  2; NELMDL= -5     # of ELM steps 
   EDIFF  = 0.1E-04   stopping-criterion for ELM
   LREAL  =      F    real-space projection
   NLSPLINE    = F    spline interpolate recip. space projectors
   LCOMPAT=      F    compatible to vasp.4.4
   GGA_COMPAT  = T    GGA compatible to vasp.4.4-vasp.4.6
   LMAXPAW     = -100 max onsite density
   LMAXMIX     =    2 max onsite mixed and CHGCAR
   VOSKOWN=      0    Vosko Wilk Nusair interpolation
   ROPT   =    0.00000   0.00000
 Ionic relaxation
   EDIFFG = 0.1E-03   stopping-criterion for IOM
   NSW    =      0    number of steps for IOM
   NBLOCK =      1;   KBLOCK =      1    inner block; outer block 
   IBRION =     -1    ionic relax: 0-MD 1-quasi-New 2-CG
   NFREE  =      0    steps in history (QN), initial steepest desc. (CG)
   ISIF   =      2    stress and relaxation
   IWAVPR =     10    prediction:  0-non 1-charg 2-wave 3-comb
   ISYM   =      2    0-nonsym 1-usesym 2-fastsym
   LCORR  =      T    Harris-Foulkes like correction to forces

   POTIM  = 0.5000    time-step for ionic-motion
   TEIN   =    0.0    initial temperature
   TEBEG  =    0.0;   TEEND  =   0.0 temperature during run
   SMASS  =  -3.00    Nose mass-parameter (am)
   estimated Nose-frequenzy (Omega)   =  0.10E-29 period in steps =****** mass=  -0.309E-27a.u.
   SCALEE = 1.0000    scale energy and forces
   NPACO  =    256;   APACO  = 16.0  distance and # of slots for P.C.
   PSTRESS=    0.0 pullay stress

  Mass of Ions in am
   POMASS =  58.93 50.94
  Ionic Valenz
   ZVAL   =   9.00  5.00
  Atomic Wigner-Seitz radii
   RWIGS  =  -1.00 -1.00
  virtual crystal weights 
   VCA    =   1.00  1.00
   NELECT =      28.0000    total number of electrons
   NUPDOWN=      -1.0000    fix difference up-down

 DOS related values:
   EMIN   =  10.00;   EMAX   =-10.00  energy-range for DOS
   EFERMI =   0.00
   ISMEAR =     1;   SIGMA  =   0.20  broadening in eV -4-tet -1-fermi 0-gaus

 Electronic relaxation 2 (details)
   IALGO  =     38    algorithm
   LDIAG  =      T    sub-space diagonalisation (order eigenvalues)
   LSUBROT=      F    optimize rotation matrix (better conditioning)
   TURBO    =      0    0=normal 1=particle mesh
   IRESTART =      0    0=no restart 2=restart with 2 vectors
   NREBOOT  =      0    no. of reboots
   NMIN     =      0    reboot dimension
   EREF     =   0.00    reference energy to select bands
   IMIX   =      4    mixing-type and parameters
     AMIX     =   0.40;   BMIX     =  1.00
     AMIX_MAG =   1.60;   BMIX_MAG =  1.00
     AMIN     =   0.10
     WC   =   100.;   INIMIX=   1;  MIXPRE=   1;  MAXMIX= -45

 Intra band minimization:
   WEIMIN = 0.0000     energy-eigenvalue tresh-hold
   EBREAK =  0.14E-06  absolut break condition
   DEPER  =   0.30     relativ break condition  

   TIME   =   0.40     timestep for ELM

  volume/ion in A,a.u.               =      12.46        84.08
  Fermi-wavevector in a.u.,A,eV,Ry     =   1.350868  2.552771 24.828527  1.824845
  Thomas-Fermi vector in A             =   2.478337
 
 Write flags
   LWAVE        =      T    write WAVECAR
   LDOWNSAMPLE  =      F    k-point downsampling of WAVECAR
   LCHARG       =      T    write CHGCAR
   LVTOT        =      F    write LOCPOT, total local potential
   LVHAR        =      F    write LOCPOT, Hartree potential only
   LELF         =      F    write electronic localiz. function (ELF)
   LORBIT       =      0    0 simple, 1 ext, 2 COOP (PROOUT), +10 PAW based schemes


 Dipole corrections
   LMONO  =      F    monopole corrections only (constant potential shift)
   LDIPOL =      F    correct potential (dipole corrections)
   IDIPOL =      0    1-x, 2-y, 3-z, 4-all directions 
   EPSILON=  1.0000000 bulk dielectric constant

 Exchange correlation treatment:
   GGA     =    PE    GGA type
   LEXCH   =     8    internal setting for exchange type
   VOSKOWN=      0    Vosko Wilk Nusair interpolation
   LHFCALC =     F    Hartree Fock is set to
   LHFONE  =     F    Hartree Fock one center treatment
   AEXX    =    0.0000 exact exchange contribution

 Linear response parameters
   LEPSILON=     F    determine dielectric tensor
   LRPA    =     F    only Hartree local field effects (RPA)
   LNABLA  =     F    use nabla operator in PAW spheres
   LVEL    =     F    velocity operator in full k-point grid
   LINTERFAST=   F  fast interpolation
   KINTER  =     0    interpolate to denser k-point grid
   CSHIFT  =0.1000    complex shift for real part using Kramers Kronig
   OMEGAMAX=  -1.0    maximum frequency
   DEG_THRESHOLD= 0.2000000E-02 threshold for treating states as degnerate
   RTIME   =   -0.100 relaxation time in fs
  (WPLASMAI=    0.000 imaginary part of plasma frequency in eV, 0.658/RTIME)
   DFIELD  = 0.0000000 0.0000000 0.0000000 field for delta impulse in time
 
 Orbital magnetization related:
   ORBITALMAG=     F  switch on orbital magnetization
   LCHIMAG   =     F  perturbation theory with respect to B field
   DQ        =  0.001000  dq finite difference perturbation B field
   LLRAUG    =     F  two centre corrections for induced B field



--------------------------------------------------------------------------------------------------------


 Static calculation
 charge density and potential will be updated during run
 non-spin polarized calculation
 Variant of blocked Davidson
 Davidson routine will perform the subspace rotation
 perform sub-space diagonalisation
    after iterative eigenvector-optimisation
 modified Broyden-mixing scheme, WC =      100.0
 initial mixing is a Kerker type mixing with AMIX =  0.4000 and BMIX =      1.0000
 Hartree-type preconditioning will be used
 using additional bands            4
 reciprocal scheme for non local part
 use partial core corrections
 calculate Harris-corrections to forces 
   (improved forces if not selfconsistent)
 use gradient corrections 
 use of overlap-Matrix (Vanderbilt PP)
 Methfessel and Paxton  Order N= 1 SIGMA  =   0.20


--------------------------------------------------------------------------------------------------------


  energy-cutoff  :      267.97
  volume of cell :       49.84
      direct lattice vectors                 reciprocal lattice vectors
     0.000000000  0.000000000  3.680000000     0.000000000 -0.135869565  0.271739130
    -1.840000000  3.680000000  1.840000000     0.000000000  0.271739130  0.000000000
    -3.680000000  0.000000000  0.000000000    -0.271739130 -0.135869565  0.000000000

  length of vectors
     3.680000000  4.507061127  3.680000000     0.303813584  0.271739130  0.303813584


 
 k-points in units of 2pi/SCALE and weight: Server version 2018.05.22. K-point grid 
   0.00000000  0.00000000  0.00000000       0.001
  -0.01235178  0.25475543  0.01235178       0.004
  -0.02470356  0.23777174  0.02470356       0.004
  -0.03705534  0.22078804  0.03705534       0.004
  -0.04940711  0.20380435  0.04940711       0.004
  -0.06175889  0.18682065  0.06175889       0.004
  -0.07411067  0.16983696  0.07411067       0.004
  -0.08646245  0.15285326  0.08646245       0.004
  -0.09881423  0.13586957  0.09881423       0.002
  -0.11116601  0.11888587  0.11116601       0.004
  -0.12351779  0.10190217  0.12351779       0.004
  -0.13586957  0.08491848  0.13586957       0.002
  -0.14822134  0.06793478  0.14822134       0.004
  -0.16057312  0.05095109  0.16057312       0.004
  -0.17292490  0.03396739  0.17292490       0.004
  -0.18527668  0.01698370  0.18527668       0.004
  -0.19762846  0.00000000  0.19762846       0.002
  -0.20998024 -0.01698370  0.20998024       0.004
  -0.22233202 -0.03396739  0.22233202       0.004
  -0.24703557 -0.06793478  0.24703557       0.004
  -0.25938735 -0.08491848  0.25938735       0.004
   0.00000000  0.16983696  0.00000000       0.001
  -0.01235178  0.15285326  0.01235178       0.004
  -0.02470356  0.13586957  0.02470356       0.002
  -0.03705534  0.11888587  0.03705534       0.004
  -0.04940711  0.10190217  0.04940711       0.004
  -0.07411067  0.06793478  0.07411067       0.004
  -0.08646245  0.05095109  0.08646245       0.004
  -0.11116601  0.01698370  0.11116601       0.004
  -0.12351779  0.00000000  0.12351779       0.002
  -0.13586957 -0.01698370  0.13586957       0.002
  -0.14822134 -0.03396739  0.14822134       0.004
  -0.17292490 -0.06793478  0.17292490       0.004
  -0.18527668 -0.08491848  0.18527668       0.004
  -0.20998024 -0.11888587  0.20998024       0.004
  -0.22233202 -0.13586957  0.22233202       0.002
  -0.24703557 -0.16983696  0.24703557       0.004
   0.00000000  0.06793478  0.00000000       0.001
  -0.01235178  0.05095109  0.01235178       0.004
  -0.03705534  0.01698370  0.03705534       0.004
  -0.04940711  0.00000000  0.04940711       0.002
  -0.07411067 -0.03396739  0.07411067       0.004
  -0.11116601 -0.08491848  0.11116601       0.004
  -0.14822134 -0.13586957  0.14822134       0.002
  -0.17292490 -0.16983696  0.17292490       0.004
  -0.20998024  0.05095109  0.20998024       0.004
  -0.24703557  0.00000000  0.24703557       0.002
   0.00000000  0.23777174  0.00000000       0.001
  -0.03705534  0.18682065  0.03705534       0.004
  -0.07411067  0.13586957  0.07411067       0.002
  -0.17292490  0.00000000  0.17292490       0.002
   0.00000000  0.13586957  0.00000000       0.001
  -0.24703557  0.10190217  0.00000000       0.004
   0.00000000  0.20380435  0.02470356       0.004
  -0.01235178  0.18682065  0.03705534       0.008
  -0.02470356  0.16983696  0.04940711       0.008
  -0.03705534  0.15285326  0.06175889       0.008
  -0.04940711  0.13586957  0.07411067       0.004
  -0.06175889  0.11888587  0.08646245       0.008
  -0.07411067  0.10190217  0.09881423       0.008
  -0.08646245  0.08491848  0.11116601       0.008
  -0.09881423  0.06793478  0.12351779       0.008
  -0.11116601  0.05095109  0.13586957       0.008
  -0.13586957  0.01698370  0.16057312       0.008
  -0.14822134 -0.00000000  0.17292490       0.004
  -0.16057312 -0.01698370  0.18527668       0.008
  -0.17292490 -0.03396739  0.19762846       0.008
  -0.18527668 -0.05095109  0.20998024       0.008
  -0.19762846 -0.06793478  0.22233202       0.008
  -0.20998024 -0.08491848  0.23468379       0.008
  -0.23468379 -0.11888587  0.25938735       0.008
  -0.24703557 -0.00000000  0.00000000       0.002
   0.00000000  0.10190217  0.02470356       0.004
  -0.02470356  0.06793478  0.04940711       0.008
  -0.03705534  0.05095109  0.06175889       0.008
  -0.04940711  0.03396739  0.07411067       0.008
  -0.06175889  0.01698370  0.08646245       0.008
  -0.07411067  0.00000000  0.09881423       0.004
  -0.09881423 -0.03396739  0.12351779       0.008
  -0.14822134 -0.10190217  0.17292490       0.008
  -0.16057312 -0.11888587  0.18527668       0.008
  -0.17292490 -0.13586957  0.19762846       0.004
  -0.19762846 -0.16983696  0.22233202       0.008
  -0.23468379 -0.22078804  0.25938735       0.008
   0.00000000  0.00000000  0.02470356       0.002
  -0.01235178 -0.01698370  0.03705534       0.008
  -0.02470356 -0.03396739  0.04940711       0.008
  -0.06175889  0.18682065  0.08646245       0.008
  -0.09881423  0.13586957  0.12351779       0.004
  -0.16057312  0.05095109  0.18527668       0.008
  -0.19762846 -0.00000000  0.22233202       0.004
  -0.20998024 -0.01698370  0.23468379       0.008
  -0.02470356  0.13586957  0.04940711       0.004
  -0.07411067  0.06793478  0.09881423       0.008
  -0.02470356  0.00000000  0.04940711       0.004
  -0.22233202  0.06793478  0.00000000       0.004
   0.00000000  0.13586957  0.04940711       0.002
  -0.01235178  0.11888587  0.06175889       0.008
  -0.02470356  0.10190217  0.07411067       0.008
  -0.03705534  0.08491848  0.08646245       0.008
  -0.04940711  0.06793478  0.09881423       0.008
  -0.06175889  0.05095109  0.11116601       0.008
  -0.07411067  0.03396739  0.12351779       0.008
  -0.08646245  0.01698370  0.13586957       0.008
  -0.13586957 -0.05095109  0.18527668       0.008
  -0.14822134 -0.06793478  0.19762846       0.008
  -0.16057312 -0.08491848  0.20998024       0.008
  -0.17292490 -0.10190217  0.22233202       0.008
  -0.18527668 -0.11888587  0.23468379       0.008
  -0.19762846 -0.13586957  0.24703557       0.004
  -0.22233202 -0.03396739  0.00000000       0.004
   0.00000000  0.03396739  0.04940711       0.004
  -0.01235178  0.01698370  0.06175889       0.008
  -0.02470356 -0.00000000  0.07411067       0.004
  -0.03705534 -0.01698370  0.08646245       0.008
  -0.04940711 -0.03396739  0.09881423       0.008
  -0.14822134 -0.16983696  0.19762846       0.008
  -0.18527668  0.05095109  0.23468379       0.008
  -0.19762846  0.03396739  0.24703557       0.008
  -0.22233202  0.13586957  0.00000000       0.002
  -0.01235178  0.18682065  0.06175889       0.008
  -0.04940711  0.13586957  0.09881423       0.004
  -0.06175889  0.11888587  0.11116601       0.008
  -0.14822134  0.00000000  0.19762846       0.004
  -0.16057312 -0.01698370  0.20998024       0.008
  -0.19762846 -0.06793478  0.24703557       0.008
  -0.01235178  0.05095109  0.06175889       0.008
  -0.04940711  0.00000000  0.09881423       0.004
  -0.14822134 -0.13586957  0.19762846       0.004
  -0.19762846  0.03396739  0.00000000       0.004
   0.00000000  0.06793478  0.07411067       0.004
  -0.01235178  0.05095109  0.08646245       0.008
  -0.02470356  0.03396739  0.09881423       0.008
  -0.03705534  0.01698370  0.11116601       0.008
  -0.04940711  0.00000000  0.12351779       0.004
  -0.06175889 -0.01698370  0.13586957       0.008
  -0.14822134 -0.13586957  0.22233202       0.004
  -0.16057312 -0.15285326  0.23468379       0.008
  -0.17292490 -0.16983696  0.24703557       0.008
  -0.18527668 -0.18682065  0.25938735       0.008
   0.00000000 -0.03396739  0.07411067       0.004
  -0.02470356  0.20380435  0.09881423       0.008
  -0.03705534  0.18682065  0.11116601       0.008
  -0.04940711  0.16983696  0.12351779       0.008
  -0.13586957  0.05095109  0.20998024       0.008
  -0.14822134  0.03396739  0.22233202       0.008
  -0.17292490 -0.00000000  0.24703557       0.004
  -0.18527668 -0.01698370  0.25938735       0.008
   0.00000000  0.13586957  0.07411067       0.002
  -0.01235178  0.11888587  0.08646245       0.008
  -0.04940711  0.06793478  0.12351779       0.008
  -0.03705534  0.05095109  0.11116601       0.008
  -0.17292490 -0.13586957  0.24703557       0.004
   0.00000000  0.00000000  0.07411067       0.002
  -0.17292490  0.00000000  0.00000000       0.002
   0.00000000  0.00000000  0.09881423       0.002
  -0.01235178 -0.01698370  0.11116601       0.008
  -0.02470356 -0.03396739  0.12351779       0.008
  -0.03705534 -0.05095109  0.13586957       0.008
  -0.14822134  0.06793478  0.24703557       0.008
  -0.16057312  0.05095109  0.25938735       0.008
  -0.17292490  0.16983696  0.00000000       0.004
   0.00000000  0.16983696  0.09881423       0.004
  -0.01235178  0.15285326  0.11116601       0.008
  -0.02470356  0.13586957  0.12351779       0.004
  -0.03705534  0.11888587  0.13586957       0.008
  -0.17292490  0.06793478  0.00000000       0.004
  -0.02470356  0.10190217  0.12351779       0.008
  -0.16057312 -0.08491848  0.25938735       0.008
  -0.02470356  0.00000000  0.12351779       0.004
  -0.14822134 -0.03396739  0.00000000       0.004
   0.00000000  0.20380435  0.12351779       0.004
  -0.01235178  0.18682065  0.13586957       0.008
  -0.13586957  0.01698370  0.25938735       0.008
  -0.14822134  0.13586957  0.00000000       0.002
  -0.14822134  0.10190217  0.00000000       0.004
  -0.14822134 -0.00000000  0.00000000       0.002
 
 k-points in reciprocal lattice and weights: Server version 2018.05.22. K-point grid 
   0.00000000  0.00000000  0.00000000       0.001
   0.04545455  0.98295455  0.04545455       0.004
   0.09090909  0.96590909  0.09090909       0.004
   0.13636364  0.94886364  0.13636364       0.004
   0.18181818  0.93181818  0.18181818       0.004
   0.22727273  0.91477273  0.22727273       0.004
   0.27272727  0.89772727  0.27272727       0.004
   0.31818182  0.88068182  0.31818182       0.004
   0.36363636  0.86363636  0.36363636       0.002
   0.40909091  0.84659091  0.40909091       0.004
   0.45454545  0.82954545  0.45454545       0.004
   0.50000000  0.81250000  0.50000000       0.002
   0.54545455  0.79545455  0.54545455       0.004
   0.59090909  0.77840909  0.59090909       0.004
   0.63636364  0.76136364  0.63636364       0.004
   0.68181818  0.74431818  0.68181818       0.004
   0.72727273  0.72727273  0.72727273       0.002
   0.77272727  0.71022727  0.77272727       0.004
   0.81818182  0.69318182  0.81818182       0.004
   0.90909091  0.65909091  0.90909091       0.004
   0.95454545  0.64204545  0.95454545       0.004
   0.00000000  0.62500000  0.00000000       0.001
   0.04545455  0.60795455  0.04545455       0.004
   0.09090909  0.59090909  0.09090909       0.002
   0.13636364  0.57386364  0.13636364       0.004
   0.18181818  0.55681818  0.18181818       0.004
   0.27272727  0.52272727  0.27272727       0.004
   0.31818182  0.50568182  0.31818182       0.004
   0.40909091  0.47159091  0.40909091       0.004
   0.45454545  0.45454545  0.45454545       0.002
   0.50000000  0.43750000  0.50000000       0.002
   0.54545455  0.42045455  0.54545455       0.004
   0.63636364  0.38636364  0.63636364       0.004
   0.68181818  0.36931818  0.68181818       0.004
   0.77272727  0.33522727  0.77272727       0.004
   0.81818182  0.31818182  0.81818182       0.002
   0.90909091  0.28409091  0.90909091       0.004
   0.00000000  0.25000000  0.00000000       0.001
   0.04545455  0.23295455  0.04545455       0.004
   0.13636364  0.19886364  0.13636364       0.004
   0.18181818  0.18181818  0.18181818       0.002
   0.27272727  0.14772727  0.27272727       0.004
   0.40909091  0.09659091  0.40909091       0.004
   0.54545455  0.04545455  0.54545455       0.002
   0.63636364  0.01136364  0.63636364       0.004
   0.77272727  0.96022727  0.77272727       0.004
   0.90909091  0.90909091  0.90909091       0.002
   0.00000000  0.87500000  0.00000000       0.001
   0.13636364  0.82386364  0.13636364       0.004
   0.27272727  0.77272727  0.27272727       0.002
   0.63636364  0.63636364  0.63636364       0.002
   0.00000000  0.50000000  0.00000000       0.001
   0.00000000  0.82954545  0.90909091       0.004
   0.09090909  0.79545455  0.00000000       0.004
   0.13636364  0.77840909  0.04545455       0.008
   0.18181818  0.76136364  0.09090909       0.008
   0.22727273  0.74431818  0.13636364       0.008
   0.27272727  0.72727273  0.18181818       0.004
   0.31818182  0.71022727  0.22727273       0.008
   0.36363636  0.69318182  0.27272727       0.008
   0.40909091  0.67613636  0.31818182       0.008
   0.45454545  0.65909091  0.36363636       0.008
   0.50000000  0.64204545  0.40909091       0.008
   0.59090909  0.60795455  0.50000000       0.008
   0.63636364  0.59090909  0.54545455       0.004
   0.68181818  0.57386364  0.59090909       0.008
   0.72727273  0.55681818  0.63636364       0.008
   0.77272727  0.53977273  0.68181818       0.008
   0.81818182  0.52272727  0.72727273       0.008
   0.86363636  0.50568182  0.77272727       0.008
   0.95454545  0.47159091  0.86363636       0.008
   0.00000000  0.45454545  0.90909091       0.002
   0.09090909  0.42045455  0.00000000       0.004
   0.18181818  0.38636364  0.09090909       0.008
   0.22727273  0.36931818  0.13636364       0.008
   0.27272727  0.35227273  0.18181818       0.008
   0.31818182  0.33522727  0.22727273       0.008
   0.36363636  0.31818182  0.27272727       0.004
   0.45454545  0.28409091  0.36363636       0.008
   0.63636364  0.21590909  0.54545455       0.008
   0.68181818  0.19886364  0.59090909       0.008
   0.72727273  0.18181818  0.63636364       0.004
   0.81818182  0.14772727  0.72727273       0.008
   0.95454545  0.09659091  0.86363636       0.008
   0.09090909  0.04545455  0.00000000       0.002
   0.13636364  0.02840909  0.04545455       0.008
   0.18181818  0.01136364  0.09090909       0.008
   0.31818182  0.96022727  0.22727273       0.008
   0.45454545  0.90909091  0.36363636       0.004
   0.68181818  0.82386364  0.59090909       0.008
   0.81818182  0.77272727  0.72727273       0.004
   0.86363636  0.75568182  0.77272727       0.008
   0.18181818  0.63636364  0.09090909       0.004
   0.36363636  0.56818182  0.27272727       0.008
   0.18181818  0.13636364  0.09090909       0.004
   0.00000000  0.65909091  0.81818182       0.004
   0.18181818  0.59090909  0.00000000       0.002
   0.22727273  0.57386364  0.04545455       0.008
   0.27272727  0.55681818  0.09090909       0.008
   0.31818182  0.53977273  0.13636364       0.008
   0.36363636  0.52272727  0.18181818       0.008
   0.40909091  0.50568182  0.22727273       0.008
   0.45454545  0.48863636  0.27272727       0.008
   0.50000000  0.47159091  0.31818182       0.008
   0.68181818  0.40340909  0.50000000       0.008
   0.72727273  0.38636364  0.54545455       0.008
   0.77272727  0.36931818  0.59090909       0.008
   0.81818182  0.35227273  0.63636364       0.008
   0.86363636  0.33522727  0.68181818       0.008
   0.90909091  0.31818182  0.72727273       0.004
   0.00000000  0.28409091  0.81818182       0.004
   0.18181818  0.21590909  0.00000000       0.004
   0.22727273  0.19886364  0.04545455       0.008
   0.27272727  0.18181818  0.09090909       0.004
   0.31818182  0.16477273  0.13636364       0.008
   0.36363636  0.14772727  0.18181818       0.008
   0.72727273  0.01136364  0.54545455       0.008
   0.86363636  0.96022727  0.68181818       0.008
   0.90909091  0.94318182  0.72727273       0.008
   0.00000000  0.90909091  0.81818182       0.002
   0.22727273  0.82386364  0.04545455       0.008
   0.36363636  0.77272727  0.18181818       0.004
   0.40909091  0.75568182  0.22727273       0.008
   0.72727273  0.63636364  0.54545455       0.004
   0.77272727  0.61931818  0.59090909       0.008
   0.90909091  0.56818182  0.72727273       0.008
   0.22727273  0.32386364  0.04545455       0.008
   0.36363636  0.27272727  0.18181818       0.004
   0.72727273  0.13636364  0.54545455       0.004
   0.00000000  0.48863636  0.72727273       0.004
   0.27272727  0.38636364  0.00000000       0.004
   0.31818182  0.36931818  0.04545455       0.008
   0.36363636  0.35227273  0.09090909       0.008
   0.40909091  0.33522727  0.13636364       0.008
   0.45454545  0.31818182  0.18181818       0.004
   0.50000000  0.30113636  0.22727273       0.008
   0.81818182  0.18181818  0.54545455       0.004
   0.86363636  0.16477273  0.59090909       0.008
   0.90909091  0.14772727  0.63636364       0.008
   0.95454545  0.13068182  0.68181818       0.008
   0.27272727  0.01136364  0.00000000       0.004
   0.36363636  0.97727273  0.09090909       0.008
   0.40909091  0.96022727  0.13636364       0.008
   0.45454545  0.94318182  0.18181818       0.008
   0.77272727  0.82386364  0.50000000       0.008
   0.81818182  0.80681818  0.54545455       0.008
   0.90909091  0.77272727  0.63636364       0.004
   0.95454545  0.75568182  0.68181818       0.008
   0.27272727  0.63636364  0.00000000       0.002
   0.31818182  0.61931818  0.04545455       0.008
   0.45454545  0.56818182  0.18181818       0.008
   0.40909091  0.46022727  0.13636364       0.008
   0.90909091  0.27272727  0.63636364       0.004
   0.27272727  0.13636364  0.00000000       0.002
   0.00000000  0.31818182  0.63636364       0.002
   0.36363636  0.18181818  0.00000000       0.002
   0.40909091  0.16477273  0.04545455       0.008
   0.45454545  0.14772727  0.09090909       0.008
   0.50000000  0.13068182  0.13636364       0.008
   0.90909091  0.97727273  0.54545455       0.008
   0.95454545  0.96022727  0.59090909       0.008
   0.00000000  0.94318182  0.63636364       0.004
   0.36363636  0.80681818  0.00000000       0.004
   0.40909091  0.78977273  0.04545455       0.008
   0.45454545  0.77272727  0.09090909       0.004
   0.50000000  0.75568182  0.13636364       0.008
   0.00000000  0.56818182  0.63636364       0.004
   0.45454545  0.64772727  0.09090909       0.008
   0.95454545  0.46022727  0.59090909       0.008
   0.45454545  0.27272727  0.09090909       0.004
   0.00000000  0.14772727  0.54545455       0.004
   0.45454545  0.97727273  0.00000000       0.004
   0.50000000  0.96022727  0.04545455       0.008
   0.95454545  0.78977273  0.50000000       0.008
   0.00000000  0.77272727  0.54545455       0.002
   0.00000000  0.64772727  0.54545455       0.004
   0.00000000  0.27272727  0.54545455       0.002
 
 position of ions in fractional coordinates (direct lattice) 
   0.00000000  0.00000000  0.00000000
   0.25000000  0.50000000  0.75000000
   0.50000000  0.00000000  0.50000000
   0.75000000  0.50000000  0.25000000
 
 position of ions in cartesian coordinates  (Angst):
   0.00000000  0.00000000  0.00000000
  -3.68000000  1.84000000  1.84000000
  -1.84000000  0.00000000  1.84000000
  -1.84000000  1.84000000  3.68000000
 


--------------------------------------------------------------------------------------------------------


 k-point  1 :   0.0000 0.0000 0.0000  plane waves:     485
 k-point  2 :   0.0455 0.9830 0.0455  plane waves:     475
 k-point  3 :   0.0909 0.9659 0.0909  plane waves:     480
 k-point  4 :   0.1364 0.9489 0.1364  plane waves:     491
 k-point  5 :   0.1818 0.9318 0.1818  plane waves:     499
 k-point  6 :   0.2273 0.9148 0.2273  plane waves:     499
 k-point  7 :   0.2727 0.8977 0.2727  plane waves:     499
 k-point  8 :   0.3182 0.8807 0.3182  plane waves:     494
 k-point  9 :   0.3636 0.8636 0.3636  plane waves:     498
 k-point 10 :   0.4091 0.8466 0.4091  plane waves:     498
 k-point 11 :   0.4545 0.8295 0.4545  plane waves:     502
 k-point 12 :   0.5000 0.8125 0.5000  plane waves:     504
 k-point 13 :   0.5455 0.7955 0.5455  plane waves:     501
 k-point 14 :   0.5909 0.7784 0.5909  plane waves:     502
 k-point 15 :   0.6364 0.7614 0.6364  plane waves:     500
 k-point 16 :   0.6818 0.7443 0.6818  plane waves:     497
 k-point 17 :   0.7273 0.7273 0.7273  plane waves:     495
 k-point 18 :   0.7727 0.7102 0.7727  plane waves:     488
 k-point 19 :   0.8182 0.6932 0.8182  plane waves:     489
 k-point 20 :   0.9091 0.6591 0.9091  plane waves:     491
 k-point 21 :   0.9545 0.6420 0.9545  plane waves:     495
 k-point 22 :   0.0000 0.6250 0.0000  plane waves:     494
 k-point 23 :   0.0455 0.6080 0.0455  plane waves:     490
 k-point 24 :   0.0909 0.5909 0.0909  plane waves:     492
 k-point 25 :   0.1364 0.5739 0.1364  plane waves:     496
 k-point 26 :   0.1818 0.5568 0.1818  plane waves:     497
 k-point 27 :   0.2727 0.5227 0.2727  plane waves:     496
 k-point 28 :   0.3182 0.5057 0.3182  plane waves:     500
 k-point 29 :   0.4091 0.4716 0.4091  plane waves:     504
 k-point 30 :   0.4545 0.4545 0.4545  plane waves:     495
 k-point 31 :   0.5000 0.4375 0.5000  plane waves:     494
 k-point 32 :   0.5455 0.4205 0.5455  plane waves:     505
 k-point 33 :   0.6364 0.3864 0.6364  plane waves:     497
 k-point 34 :   0.6818 0.3693 0.6818  plane waves:     497
 k-point 35 :   0.7727 0.3352 0.7727  plane waves:     504
 k-point 36 :   0.8182 0.3182 0.8182  plane waves:     496
 k-point 37 :   0.9091 0.2841 0.9091  plane waves:     496
 k-point 38 :   0.0000 0.2500 0.0000  plane waves:     494
 k-point 39 :   0.0455 0.2330 0.0455  plane waves:     486
 k-point 40 :   0.1364 0.1989 0.1364  plane waves:     481
 k-point 41 :   0.1818 0.1818 0.1818  plane waves:     483
 k-point 42 :   0.2727 0.1477 0.2727  plane waves:     497
 k-point 43 :   0.4091 0.0966 0.4091  plane waves:     495
 k-point 44 :   0.5455 0.0455 0.5455  plane waves:     492
 k-point 45 :   0.6364 0.0114 0.6364  plane waves:     492
 k-point 46 :   0.7727 0.9602 0.7727  plane waves:     494
 k-point 47 :   0.9091 0.9091 0.9091  plane waves:     475
 k-point 48 :   0.0000 0.8750 0.0000  plane waves:     474
 k-point 49 :   0.1364 0.8239 0.1364  plane waves:     493
 k-point 50 :   0.2727 0.7727 0.2727  plane waves:     500
 k-point 51 :   0.6364 0.6364 0.6364  plane waves:     497
 k-point 52 :   0.0000 0.5000 0.0000  plane waves:     482
 k-point 53 :   0.0000 0.8295 0.9091  plane waves:     481
 k-point 54 :   0.0909 0.7955 0.0000  plane waves:     491
 k-point 55 :   0.1364 0.7784 0.0455  plane waves:     492
 k-point 56 :   0.1818 0.7614 0.0909  plane waves:     495
 k-point 57 :   0.2273 0.7443 0.1364  plane waves:     499
 k-point 58 :   0.2727 0.7273 0.1818  plane waves:     507
 k-point 59 :   0.3182 0.7102 0.2273  plane waves:     503
 k-point 60 :   0.3636 0.6932 0.2727  plane waves:     495
 k-point 61 :   0.4091 0.6761 0.3182  plane waves:     496
 k-point 62 :   0.4545 0.6591 0.3636  plane waves:     499
 k-point 63 :   0.5000 0.6420 0.4091  plane waves:     501
 k-point 64 :   0.5909 0.6080 0.5000  plane waves:     498
 k-point 65 :   0.6364 0.5909 0.5455  plane waves:     499
 k-point 66 :   0.6818 0.5739 0.5909  plane waves:     502
 k-point 67 :   0.7273 0.5568 0.6364  plane waves:     497
 k-point 68 :   0.7727 0.5398 0.6818  plane waves:     500
 k-point 69 :   0.8182 0.5227 0.7273  plane waves:     497
 k-point 70 :   0.8636 0.5057 0.7727  plane waves:     498
 k-point 71 :   0.9545 0.4716 0.8636  plane waves:     493
 k-point 72 :   0.0000 0.4545 0.9091  plane waves:     489
 k-point 73 :   0.0909 0.4205 0.0000  plane waves:     492
 k-point 74 :   0.1818 0.3864 0.0909  plane waves:     495
 k-point 75 :   0.2273 0.3693 0.1364  plane waves:     492
 k-point 76 :   0.2727 0.3523 0.1818  plane waves:     494
 k-point 77 :   0.3182 0.3352 0.2273  plane waves:     494
 k-point 78 :   0.3636 0.3182 0.2727  plane waves:     499
 k-point 79 :   0.4545 0.2841 0.3636  plane waves:     502
 k-point 80 :   0.6364 0.2159 0.5455  plane waves:     497
 k-point 81 :   0.6818 0.1989 0.5909  plane waves:     497
 k-point 82 :   0.7273 0.1818 0.6364  plane waves:     499
 k-point 83 :   0.8182 0.1477 0.7273  plane waves:     498
 k-point 84 :   0.9545 0.0966 0.8636  plane waves:     488
 k-point 85 :   0.0909 0.0455 0.0000  plane waves:     473
 k-point 86 :   0.1364 0.0284 0.0455  plane waves:     479
 k-point 87 :   0.1818 0.0114 0.0909  plane waves:     484
 k-point 88 :   0.3182 0.9602 0.2273  plane waves:     499
 k-point 89 :   0.4545 0.9091 0.3636  plane waves:     501
 k-point 90 :   0.6818 0.8239 0.5909  plane waves:     502
 k-point 91 :   0.8182 0.7727 0.7273  plane waves:     492
 k-point 92 :   0.8636 0.7557 0.7727  plane waves:     487
 k-point 93 :   0.1818 0.6364 0.0909  plane waves:     497
 k-point 94 :   0.3636 0.5682 0.2727  plane waves:     498
 k-point 95 :   0.1818 0.1364 0.0909  plane waves:     482
 k-point 96 :   0.0000 0.6591 0.8182  plane waves:     490
 k-point 97 :   0.1818 0.5909 0.0000  plane waves:     495
 k-point 98 :   0.2273 0.5739 0.0455  plane waves:     502
 k-point 99 :   0.2727 0.5568 0.0909  plane waves:     500
 k-point ** :   0.3182 0.5398 0.1364  plane waves:     497
 k-point ** :   0.3636 0.5227 0.1818  plane waves:     496
 k-point ** :   0.4091 0.5057 0.2273  plane waves:     501
 k-point ** :   0.4545 0.4886 0.2727  plane waves:     501
 k-point ** :   0.5000 0.4716 0.3182  plane waves:     497
 k-point ** :   0.6818 0.4034 0.5000  plane waves:     498
 k-point ** :   0.7273 0.3864 0.5455  plane waves:     497
 k-point ** :   0.7727 0.3693 0.5909  plane waves:     492
 k-point ** :   0.8182 0.3523 0.6364  plane waves:     501
 k-point ** :   0.8636 0.3352 0.6818  plane waves:     500
 k-point ** :   0.9091 0.3182 0.7273  plane waves:     502
 k-point ** :   0.0000 0.2841 0.8182  plane waves:     496
 k-point ** :   0.1818 0.2159 0.0000  plane waves:     487
 k-point ** :   0.2273 0.1989 0.0455  plane waves:     487
 k-point ** :   0.2727 0.1818 0.0909  plane waves:     485
 k-point ** :   0.3182 0.1648 0.1364  plane waves:     495
 k-point ** :   0.3636 0.1477 0.1818  plane waves:     496
 k-point ** :   0.7273 0.0114 0.5455  plane waves:     495
 k-point ** :   0.8636 0.9602 0.6818  plane waves:     496
 k-point ** :   0.9091 0.9432 0.7273  plane waves:     492
 k-point ** :   0.0000 0.9091 0.8182  plane waves:     477
 k-point ** :   0.2273 0.8239 0.0455  plane waves:     496
 k-point ** :   0.3636 0.7727 0.1818  plane waves:     501
 k-point ** :   0.4091 0.7557 0.2273  plane waves:     499
 k-point ** :   0.7273 0.6364 0.5455  plane waves:     504
 k-point ** :   0.7727 0.6193 0.5909  plane waves:     499
 k-point ** :   0.9091 0.5682 0.7273  plane waves:     494
 k-point ** :   0.2273 0.3239 0.0455  plane waves:     490
 k-point ** :   0.3636 0.2727 0.1818  plane waves:     500
 k-point ** :   0.7273 0.1364 0.5455  plane waves:     498
 k-point ** :   0.0000 0.4886 0.7273  plane waves:     500
 k-point ** :   0.2727 0.3864 0.0000  plane waves:     500
 k-point ** :   0.3182 0.3693 0.0455  plane waves:     495
 k-point ** :   0.3636 0.3523 0.0909  plane waves:     497
 k-point ** :   0.4091 0.3352 0.1364  plane waves:     503
 k-point ** :   0.4545 0.3182 0.1818  plane waves:     501
 k-point ** :   0.5000 0.3011 0.2273  plane waves:     499
 k-point ** :   0.8182 0.1818 0.5455  plane waves:     499
 k-point ** :   0.8636 0.1648 0.5909  plane waves:     499
 k-point ** :   0.9091 0.1477 0.6364  plane waves:     501
 k-point ** :   0.9545 0.1307 0.6818  plane waves:     498
 k-point ** :   0.2727 0.0114 0.0000  plane waves:     492
 k-point ** :   0.3636 0.9773 0.0909  plane waves:     497
 k-point ** :   0.4091 0.9602 0.1364  plane waves:     499
 k-point ** :   0.4545 0.9432 0.1818  plane waves:     503
 k-point ** :   0.7727 0.8239 0.5000  plane waves:     499
 k-point ** :   0.8182 0.8068 0.5455  plane waves:     496
 k-point ** :   0.9091 0.7727 0.6364  plane waves:     497
 k-point ** :   0.9545 0.7557 0.6818  plane waves:     496
 k-point ** :   0.2727 0.6364 0.0000  plane waves:     503
 k-point ** :   0.3182 0.6193 0.0455  plane waves:     505
 k-point ** :   0.4545 0.5682 0.1818  plane waves:     498
 k-point ** :   0.4091 0.4602 0.1364  plane waves:     496
 k-point ** :   0.9091 0.2727 0.6364  plane waves:     499
 k-point ** :   0.2727 0.1364 0.0000  plane waves:     487
 k-point ** :   0.0000 0.3182 0.6364  plane waves:     503
 k-point ** :   0.3636 0.1818 0.0000  plane waves:     501
 k-point ** :   0.4091 0.1648 0.0455  plane waves:     493
 k-point ** :   0.4545 0.1477 0.0909  plane waves:     497
 k-point ** :   0.5000 0.1307 0.1364  plane waves:     497
 k-point ** :   0.9091 0.9773 0.5455  plane waves:     499
 k-point ** :   0.9545 0.9602 0.5909  plane waves:     496
 k-point ** :   0.0000 0.9432 0.6364  plane waves:     496
 k-point ** :   0.3636 0.8068 0.0000  plane waves:     499
 k-point ** :   0.4091 0.7898 0.0455  plane waves:     501
 k-point ** :   0.4545 0.7727 0.0909  plane waves:     499
 k-point ** :   0.5000 0.7557 0.1364  plane waves:     501
 k-point ** :   0.0000 0.5682 0.6364  plane waves:     503
 k-point ** :   0.4545 0.6477 0.0909  plane waves:     497
 k-point ** :   0.9545 0.4602 0.5909  plane waves:     500
 k-point ** :   0.4545 0.2727 0.0909  plane waves:     496
 k-point ** :   0.0000 0.1477 0.5455  plane waves:     497
 k-point ** :   0.4545 0.9773 0.0000  plane waves:     501
 k-point ** :   0.5000 0.9602 0.0455  plane waves:     497
 k-point ** :   0.9545 0.7898 0.5000  plane waves:     497
 k-point ** :   0.0000 0.7727 0.5455  plane waves:     495
 k-point ** :   0.0000 0.6477 0.5455  plane waves:     494
 k-point ** :   0.0000 0.2727 0.5455  plane waves:     499

 maximum and minimum number of plane-waves per node :       507      473

 maximum number of plane-waves:       507
 maximum index in each direction: 
   IXMAX=    4   IYMAX=    6   IZMAX=    4
   IXMIN=   -5   IYMIN=   -6   IZMIN=   -5


 serial   3D FFT for wavefunctions
 parallel 3D FFT for charge:
    minimum data exchange during FFTs selected (reduces bandwidth)


 total amount of memory used by VASP MPI-rank0    93044. kBytes
=======================================================================

   base      :      30000. kBytes
   nonl-proj :      25877. kBytes
   fftplans  :       2744. kBytes
   grid      :       4846. kBytes
   one-center:         62. kBytes
   wavefun   :      29515. kBytes
 
     INWAV:  cpu time    0.0000: real time    0.0002
 Broyden mixing: mesh for mixing (old mesh)
   NGX =  9   NGY = 13   NGZ =  9
  (NGX  = 40   NGY  = 48   NGZ  = 40)
  gives a total of   1053 points

 initial charge density was supplied:
 charge density of overlapping atoms calculated
 number of electron      28.0000000 magnetization 
 keeping initial charge density in first step


--------------------------------------------------------------------------------------------------------


 Maximum index for augmentation-charges        11353 (set IRDMAX)


--------------------------------------------------------------------------------------------------------


 First call to EWALD:  gamma=   0.482
 Maximum number of real-space cells 3x 3x 3
 Maximum number of reciprocal cells 3x 3x 3

    FEWALD:  cpu time    0.0070: real time    0.0063


--------------------------------------- Iteration      1(   1)  ---------------------------------------


    POTLOK:  cpu time    0.1730: real time    0.1751
    SETDIJ:  cpu time    0.0710: real time    0.0714
     EDDAV:  cpu time   17.2764: real time   17.3468
       DOS:  cpu time    0.0800: real time    0.0801
    --------------------------------------------
      LOOP:  cpu time   17.6003: real time   17.6735

 eigenvalue-minimisations  :  6404
 total energy-change (2. order) : 0.1295629E+03  (-0.7089978E+03)
 number of electron      28.0000000 magnetization 
 augmentation part       28.0000000 magnetization 

 Free energy of the ion-electron system (eV)
  ---------------------------------------------------
  alpha Z        PSCENC =       122.54688800
  Ewald energy   TEWEN  =     -1830.62359913
  -Hartree energ DENC   =      -432.37289948
  -exchange      EXHF   =         0.00000000
  -V(xc)+E(xc)   XCENC  =       -58.88559990
  PAW double counting   =      1854.55396876    -1862.01702328
  entropy T*S    EENTRO =         0.00163149
  eigenvalues    EBANDS =       367.97605187
  atomic energy  EATOM  =      1968.38345300
  Solvation  Ediel_sol  =         0.00000000
  ---------------------------------------------------
  free energy    TOTEN  =       129.56287133 eV

  energy without entropy =      129.56123984  energy(sigma->0) =      129.56232750


--------------------------------------------------------------------------------------------------------




--------------------------------------- Iteration      1(   2)  ---------------------------------------


     EDDAV:  cpu time   17.7143: real time   17.7860
       DOS:  cpu time    0.0990: real time    0.0997
    --------------------------------------------
      LOOP:  cpu time   17.8133: real time   17.8857

 eigenvalue-minimisations  :  6378
 total energy-change (2. order) :-0.1486148E+03  (-0.1447049E+03)
 number of electron      28.0000000 magnetization 
 augmentation part       28.0000000 magnetization 

 Free energy of the ion-electron system (eV)
  ---------------------------------------------------
  alpha Z        PSCENC =       122.54688800
  Ewald energy   TEWEN  =     -1830.62359913
  -Hartree energ DENC   =      -432.37289948
  -exchange      EXHF   =         0.00000000
  -V(xc)+E(xc)   XCENC  =       -58.88559990
  PAW double counting   =      1854.55396876    -1862.01702328
  entropy T*S    EENTRO =        -0.00256245
  eigenvalues    EBANDS =       219.36540803
  atomic energy  EATOM  =      1968.38345300
  Solvation  Ediel_sol  =         0.00000000
  ---------------------------------------------------
  free energy    TOTEN  =       -19.05196646 eV

  energy without entropy =      -19.04940400  energy(sigma->0) =      -19.05111230


--------------------------------------------------------------------------------------------------------




--------------------------------------- Iteration      1(   3)  ---------------------------------------


     EDDAV:  cpu time   26.9759: real time   27.0868
       DOS:  cpu time    0.1070: real time    0.1075
    --------------------------------------------
      LOOP:  cpu time   27.0829: real time   27.1943

 eigenvalue-minimisations  : 11290
 total energy-change (2. order) :-0.1811915E+02  (-0.1729601E+02)
 number of electron      28.0000000 magnetization 
 augmentation part       28.0000000 magnetization 

 Free energy of the ion-electron system (eV)
  ---------------------------------------------------
  alpha Z        PSCENC =       122.54688800
  Ewald energy   TEWEN  =     -1830.62359913
  -Hartree energ DENC   =      -432.37289948
  -exchange      EXHF   =         0.00000000
  -V(xc)+E(xc)   XCENC  =       -58.88559990
  PAW double counting   =      1854.55396876    -1862.01702328
  entropy T*S    EENTRO =         0.00208518
  eigenvalues    EBANDS =       201.24161055
  atomic energy  EATOM  =      1968.38345300
  Solvation  Ediel_sol  =         0.00000000
  ---------------------------------------------------
  free energy    TOTEN  =       -37.17111630 eV

  energy without entropy =      -37.17320148  energy(sigma->0) =      -37.17181136


--------------------------------------------------------------------------------------------------------




--------------------------------------- Iteration      1(   4)  ---------------------------------------


     EDDAV:  cpu time   22.4086: real time   22.5010
       DOS:  cpu time    0.1140: real time    0.1149
    --------------------------------------------
      LOOP:  cpu time   22.5226: real time   22.6158

 eigenvalue-minimisations  :  9022
 total energy-change (2. order) :-0.7995750E+00  (-0.7886115E+00)
 number of electron      28.0000000 magnetization 
 augmentation part       28.0000000 magnetization 

 Free energy of the ion-electron system (eV)
  ---------------------------------------------------
  alpha Z        PSCENC =       122.54688800
  Ewald energy   TEWEN  =     -1830.62359913
  -Hartree energ DENC   =      -432.37289948
  -exchange      EXHF   =         0.00000000
  -V(xc)+E(xc)   XCENC  =       -58.88559990
  PAW double counting   =      1854.55396876    -1862.01702328
  entropy T*S    EENTRO =         0.00300241
  eigenvalues    EBANDS =       200.44111828
  atomic energy  EATOM  =      1968.38345300
  Solvation  Ediel_sol  =         0.00000000
  ---------------------------------------------------
  free energy    TOTEN  =       -37.97069134 eV

  energy without entropy =      -37.97369374  energy(sigma->0) =      -37.97169214


--------------------------------------------------------------------------------------------------------




--------------------------------------- Iteration      1(   5)  ---------------------------------------


     EDDAV:  cpu time   23.6904: real time   23.7891
       DOS:  cpu time    0.1140: real time    0.1138
    CHARGE:  cpu time    2.5416: real time    2.5507
    MIXING:  cpu time    0.0070: real time    0.0069
    --------------------------------------------
      LOOP:  cpu time   26.3530: real time   26.4605

 eigenvalue-minimisations  :  9514
 total energy-change (2. order) :-0.2128651E-01  (-0.2111560E-01)
 number of electron      27.9999930 magnetization 
 augmentation part       11.6697789 magnetization 

 Broyden mixing:
  rms(total) = 0.21531E+01    rms(broyden)= 0.21526E+01
  rms(prec ) = 0.41218E+01
  weight for this iteration     100.00

 Free energy of the ion-electron system (eV)
  ---------------------------------------------------
  alpha Z        PSCENC =       122.54688800
  Ewald energy   TEWEN  =     -1830.62359913
  -Hartree energ DENC   =      -432.37289948
  -exchange      EXHF   =         0.00000000
  -V(xc)+E(xc)   XCENC  =       -58.88559990
  PAW double counting   =      1854.55396876    -1862.01702328
  entropy T*S    EENTRO =         0.00309783
  eigenvalues    EBANDS =       200.41973635
  atomic energy  EATOM  =      1968.38345300
  Solvation  Ediel_sol  =         0.00000000
  ---------------------------------------------------
  free energy    TOTEN  =       -37.99197785 eV

  energy without entropy =      -37.99507568  energy(sigma->0) =      -37.99301046


--------------------------------------------------------------------------------------------------------




--------------------------------------- Iteration      1(   6)  ---------------------------------------


    POTLOK:  cpu time    0.1860: real time    0.1874
    SETDIJ:  cpu time    0.0770: real time    0.0779
     EDDAV:  cpu time   18.3992: real time   18.4724
       DOS:  cpu time    0.1180: real time    0.1189
    CHARGE:  cpu time    2.6136: real time    2.6233
    MIXING:  cpu time    0.0080: real time    0.0074
    --------------------------------------------
      LOOP:  cpu time   21.4017: real time   21.4872

 eigenvalue-minimisations  :  6928
 total energy-change (2. order) : 0.4448082E+01  (-0.4473320E+01)
 number of electron      27.9999906 magnetization 
 augmentation part       14.2757933 magnetization 

 Broyden mixing:
  rms(total) = 0.14182E+01    rms(broyden)= 0.14180E+01
  rms(prec ) = 0.40618E+01
  weight for this iteration     100.00

 eigenvalues of (default mixing * dielectric matrix)
  average eigenvalue GAMMA=   0.6962
  0.6962

 Free energy of the ion-electron system (eV)
  ---------------------------------------------------
  alpha Z        PSCENC =       122.54688800
  Ewald energy   TEWEN  =     -1830.62359913
  -Hartree energ DENC   =      -383.41593981
  -exchange      EXHF   =         0.00000000
  -V(xc)+E(xc)   XCENC  =       -60.55360539
  PAW double counting   =      2076.97445090    -2072.21472739
  entropy T*S    EENTRO =         0.00847905
  eigenvalues    EBANDS =       145.35070497
  atomic energy  EATOM  =      1968.38345300
  Solvation  Ediel_sol  =         0.00000000
  ---------------------------------------------------
  free energy    TOTEN  =       -33.54389580 eV

  energy without entropy =      -33.55237484  energy(sigma->0) =      -33.54672215


--------------------------------------------------------------------------------------------------------




--------------------------------------- Iteration      1(   7)  ---------------------------------------


    POTLOK:  cpu time    0.1830: real time    0.1843
    SETDIJ:  cpu time    0.0770: real time    0.0766
     EDDAV:  cpu time   27.9298: real time   28.0426
       DOS:  cpu time    0.1200: real time    0.1205
    CHARGE:  cpu time    2.6846: real time    2.6958
    MIXING:  cpu time    0.0070: real time    0.0074
    --------------------------------------------
      LOOP:  cpu time   31.0013: real time   31.1272

 eigenvalue-minimisations  : 11662
 total energy-change (2. order) :-0.9082834E+01  (-0.1212716E+02)
 number of electron      27.9999941 magnetization 
 augmentation part       13.2649243 magnetization 

 Broyden mixing:
  rms(total) = 0.43794E+01    rms(broyden)= 0.43787E+01
  rms(prec ) = 0.13826E+02
  weight for this iteration     100.00

 eigenvalues of (default mixing * dielectric matrix)
  average eigenvalue GAMMA=   0.5639
  1.0060  0.1218

 Free energy of the ion-electron system (eV)
  ---------------------------------------------------
  alpha Z        PSCENC =       122.54688800
  Ewald energy   TEWEN  =     -1830.62359913
  -Hartree energ DENC   =      -407.70349690
  -exchange      EXHF   =         0.00000000
  -V(xc)+E(xc)   XCENC  =       -59.27232465
  PAW double counting   =      2186.43777932    -2191.93373114
  entropy T*S    EENTRO =        -0.00439340
  eigenvalues    EBANDS =       169.54269507
  atomic energy  EATOM  =      1968.38345300
  Solvation  Ediel_sol  =         0.00000000
  ---------------------------------------------------
  free energy    TOTEN  =       -42.62672982 eV

  energy without entropy =      -42.62233643  energy(sigma->0) =      -42.62526536


--------------------------------------------------------------------------------------------------------




--------------------------------------- Iteration      1(   8)  ---------------------------------------


    POTLOK:  cpu time    0.1840: real time    0.1847
    SETDIJ:  cpu time    0.0780: real time    0.0786
     EDDAV:  cpu time   29.7545: real time   29.8769
       DOS:  cpu time    0.1200: real time    0.1200
    CHARGE:  cpu time    2.7076: real time    2.7198
    MIXING:  cpu time    0.0080: real time    0.0078
    --------------------------------------------
      LOOP:  cpu time   32.8520: real time   32.9878

 eigenvalue-minimisations  : 12704
 total energy-change (2. order) : 0.1062285E+02  (-0.8597892E+01)
 number of electron      27.9999917 magnetization 
 augmentation part       13.7920832 magnetization 

 Broyden mixing:
  rms(total) = 0.34515E+00    rms(broyden)= 0.33942E+00
  rms(prec ) = 0.86608E+00
  weight for this iteration     100.00

 eigenvalues of (default mixing * dielectric matrix)
  average eigenvalue GAMMA=   0.5941
  0.9923  0.6785  0.1114

 Free energy of the ion-electron system (eV)
  ---------------------------------------------------
  alpha Z        PSCENC =       122.54688800
  Ewald energy   TEWEN  =     -1830.62359913
  -Hartree energ DENC   =      -389.19603501
  -exchange      EXHF   =         0.00000000
  -V(xc)+E(xc)   XCENC  =       -60.19642344
  PAW double counting   =      2229.57095288    -2233.66288897
  entropy T*S    EENTRO =         0.00104866
  eigenvalues    EBANDS =       161.17272273
  atomic energy  EATOM  =      1968.38345300
  Solvation  Ediel_sol  =         0.00000000
  ---------------------------------------------------
  free energy    TOTEN  =       -32.00388128 eV

  energy without entropy =      -32.00492994  energy(sigma->0) =      -32.00423084


--------------------------------------------------------------------------------------------------------




--------------------------------------- Iteration      1(   9)  ---------------------------------------


    POTLOK:  cpu time    0.1860: real time    0.1878
    SETDIJ:  cpu time    0.0790: real time    0.0788
     EDDAV:  cpu time   23.9974: real time   24.0985
       DOS:  cpu time    0.1110: real time    0.1112
    CHARGE:  cpu time    2.2247: real time    2.2351
    MIXING:  cpu time    0.0080: real time    0.0072
    --------------------------------------------
      LOOP:  cpu time   26.6060: real time   26.7185

 eigenvalue-minimisations  : 10146
 total energy-change (2. order) :-0.9685202E-01  (-0.2192537E+00)
 number of electron      27.9999919 magnetization 
 augmentation part       13.7318648 magnetization 

 Broyden mixing:
  rms(total) = 0.21735E+00    rms(broyden)= 0.21718E+00
  rms(prec ) = 0.41793E+00
  weight for this iteration     100.00

 eigenvalues of (default mixing * dielectric matrix)
  average eigenvalue GAMMA=   0.9941
  1.7235  1.1787  0.9620  0.1120

 Free energy of the ion-electron system (eV)
  ---------------------------------------------------
  alpha Z        PSCENC =       122.54688800
  Ewald energy   TEWEN  =     -1830.62359913
  -Hartree energ DENC   =      -387.91925562
  -exchange      EXHF   =         0.00000000
  -V(xc)+E(xc)   XCENC  =       -60.18828209
  PAW double counting   =      2275.34663942    -2280.41450082
  entropy T*S    EENTRO =        -0.00249472
  eigenvalues    EBANDS =       160.77041867
  atomic energy  EATOM  =      1968.38345300
  Solvation  Ediel_sol  =         0.00000000
  ---------------------------------------------------
  free energy    TOTEN  =       -32.10073330 eV

  energy without entropy =      -32.09823858  energy(sigma->0) =      -32.09990173


--------------------------------------------------------------------------------------------------------




--------------------------------------- Iteration      1(  10)  ---------------------------------------


    POTLOK:  cpu time    0.1600: real time    0.1618
    SETDIJ:  cpu time    0.0690: real time    0.0684
     EDDAV:  cpu time   19.0731: real time   19.1719
       DOS:  cpu time    0.1080: real time    0.1089
    CHARGE:  cpu time    2.1327: real time    2.1421
    MIXING:  cpu time    0.0070: real time    0.0074
    --------------------------------------------
      LOOP:  cpu time   21.5497: real time   21.6606

 eigenvalue-minimisations  :  9496
 total energy-change (2. order) : 0.2296860E-01  (-0.2779299E-01)
 number of electron      27.9999918 magnetization 
 augmentation part       13.9098638 magnetization 

 Broyden mixing:
  rms(total) = 0.11956E+00    rms(broyden)= 0.11954E+00
  rms(prec ) = 0.22700E+00
  weight for this iteration     100.00

 eigenvalues of (default mixing * dielectric matrix)
  average eigenvalue GAMMA=   1.1088
  2.2194  1.5942  0.1120  0.8092  0.8092

 Free energy of the ion-electron system (eV)
  ---------------------------------------------------
  alpha Z        PSCENC =       122.54688800
  Ewald energy   TEWEN  =     -1830.62359913
  -Hartree energ DENC   =      -383.70141618
  -exchange      EXHF   =         0.00000000
  -V(xc)+E(xc)   XCENC  =       -60.25636064
  PAW double counting   =      2332.10390627    -2338.02221515
  entropy T*S    EENTRO =        -0.00379659
  eigenvalues    EBANDS =       157.49537572
  atomic energy  EATOM  =      1968.38345300
  Solvation  Ediel_sol  =         0.00000000
  ---------------------------------------------------
  free energy    TOTEN  =       -32.07776470 eV

  energy without entropy =      -32.07396811  energy(sigma->0) =      -32.07649917


--------------------------------------------------------------------------------------------------------




--------------------------------------- Iteration      1(  11)  ---------------------------------------


    POTLOK:  cpu time    0.1610: real time    0.1760
    SETDIJ:  cpu time    0.0690: real time    0.0684
     EDDAV:  cpu time   16.1645: real time   16.2588
       DOS:  cpu time    0.1120: real time    0.1124
    CHARGE:  cpu time    2.1987: real time    2.2117
    MIXING:  cpu time    0.0070: real time    0.0079
    --------------------------------------------
      LOOP:  cpu time   18.7122: real time   18.8352

 eigenvalue-minimisations  :  7464
 total energy-change (2. order) : 0.9459857E-02  (-0.5068006E-02)
 number of electron      27.9999919 magnetization 
 augmentation part       13.8252903 magnetization 

 Broyden mixing:
  rms(total) = 0.19899E-01    rms(broyden)= 0.19864E-01
  rms(prec ) = 0.26979E-01
  weight for this iteration     100.00

 eigenvalues of (default mixing * dielectric matrix)
  average eigenvalue GAMMA=   1.1855
  2.7328  0.1120  1.3828  1.1971  0.8442  0.8442

 Free energy of the ion-electron system (eV)
  ---------------------------------------------------
  alpha Z        PSCENC =       122.54688800
  Ewald energy   TEWEN  =     -1830.62359913
  -Hartree energ DENC   =      -384.81851596
  -exchange      EXHF   =         0.00000000
  -V(xc)+E(xc)   XCENC  =       -60.20819830
  PAW double counting   =      2336.32771224    -2342.96320941
  entropy T*S    EENTRO =        -0.00388447
  eigenvalues    EBANDS =       159.29104919
  atomic energy  EATOM  =      1968.38345300
  Solvation  Ediel_sol  =         0.00000000
  ---------------------------------------------------
  free energy    TOTEN  =       -32.06830484 eV

  energy without entropy =      -32.06442038  energy(sigma->0) =      -32.06701002


--------------------------------------------------------------------------------------------------------




--------------------------------------- Iteration      1(  12)  ---------------------------------------


    POTLOK:  cpu time    0.1630: real time    0.1639
    SETDIJ:  cpu time    0.0690: real time    0.0688
     EDDAV:  cpu time   21.0708: real time   21.1793
       DOS:  cpu time    0.1130: real time    0.1139
    CHARGE:  cpu time    2.1997: real time    2.2091
    MIXING:  cpu time    0.0090: real time    0.0081
    --------------------------------------------
      LOOP:  cpu time   23.6244: real time   23.7432

 eigenvalue-minimisations  : 10388
 total energy-change (2. order) :-0.4889295E-03  (-0.4420058E-03)
 number of electron      27.9999919 magnetization 
 augmentation part       13.8185560 magnetization 

 Broyden mixing:
  rms(total) = 0.84378E-02    rms(broyden)= 0.84349E-02
  rms(prec ) = 0.15392E-01
  weight for this iteration     100.00

 eigenvalues of (default mixing * dielectric matrix)
  average eigenvalue GAMMA=   1.1443
  2.6901  0.1120  1.3511  1.3511  0.8712  0.8712  0.7636

 Free energy of the ion-electron system (eV)
  ---------------------------------------------------
  alpha Z        PSCENC =       122.54688800
  Ewald energy   TEWEN  =     -1830.62359913
  -Hartree energ DENC   =      -384.78294262
  -exchange      EXHF   =         0.00000000
  -V(xc)+E(xc)   XCENC  =       -60.20567041
  PAW double counting   =      2339.99846562    -2346.68440984
  entropy T*S    EENTRO =        -0.00384835
  eigenvalues    EBANDS =       159.30286996
  atomic energy  EATOM  =      1968.38345300
  Solvation  Ediel_sol  =         0.00000000
  ---------------------------------------------------
  free energy    TOTEN  =       -32.06879377 eV

  energy without entropy =      -32.06494542  energy(sigma->0) =      -32.06751099


--------------------------------------------------------------------------------------------------------




--------------------------------------- Iteration      1(  13)  ---------------------------------------


    POTLOK:  cpu time    0.1650: real time    0.1666
    SETDIJ:  cpu time    0.0680: real time    0.0680
     EDDAV:  cpu time   20.0010: real time   20.0912
       DOS:  cpu time    0.1050: real time    0.1060
    CHARGE:  cpu time    2.0587: real time    2.0700
    MIXING:  cpu time    0.0090: real time    0.0085
    --------------------------------------------
      LOOP:  cpu time   22.4066: real time   22.5103

 eigenvalue-minimisations  : 10108
 total energy-change (2. order) :-0.2000182E-04  (-0.1085449E-04)
 number of electron      27.9999919 magnetization 
 augmentation part       13.8191367 magnetization 

 Broyden mixing:
  rms(total) = 0.61525E-02    rms(broyden)= 0.61520E-02
  rms(prec ) = 0.14405E-01
  weight for this iteration     100.00

 eigenvalues of (default mixing * dielectric matrix)
  average eigenvalue GAMMA=   1.2838
  2.8877  0.1120  1.7679  1.7679  0.8280  0.8280  1.0396  1.0396

 Free energy of the ion-electron system (eV)
  ---------------------------------------------------
  alpha Z        PSCENC =       122.54688800
  Ewald energy   TEWEN  =     -1830.62359913
  -Hartree energ DENC   =      -384.76728176
  -exchange      EXHF   =         0.00000000
  -V(xc)+E(xc)   XCENC  =       -60.20531111
  PAW double counting   =      2340.95581986    -2347.63560599
  entropy T*S    EENTRO =        -0.00386060
  eigenvalues    EBANDS =       159.28068396
  atomic energy  EATOM  =      1968.38345300
  Solvation  Ediel_sol  =         0.00000000
  ---------------------------------------------------
  free energy    TOTEN  =       -32.06881377 eV

  energy without entropy =      -32.06495317  energy(sigma->0) =      -32.06752691


--------------------------------------------------------------------------------------------------------




--------------------------------------- Iteration      1(  14)  ---------------------------------------


    POTLOK:  cpu time    0.1590: real time    0.1600
    SETDIJ:  cpu time    0.0670: real time    0.0670
     EDDAV:  cpu time   17.7013: real time   17.8095
       DOS:  cpu time    0.1140: real time    0.1137
    CHARGE:  cpu time    2.0447: real time    2.0508
    MIXING:  cpu time    0.0090: real time    0.0089
    --------------------------------------------
      LOOP:  cpu time   20.0949: real time   20.2099

 eigenvalue-minimisations  :  8816
 total energy-change (2. order) : 0.7248224E-04  (-0.2857467E-04)
 number of electron      27.9999919 magnetization 
 augmentation part       13.8130939 magnetization 

 Broyden mixing:
  rms(total) = 0.19040E-02    rms(broyden)= 0.19026E-02
  rms(prec ) = 0.32182E-02
  weight for this iteration     100.00

 eigenvalues of (default mixing * dielectric matrix)
  average eigenvalue GAMMA=   1.2816
  2.6095  1.8992  1.8992  0.1120  1.2351  1.2351  0.8309  0.8309  0.8830

 Free energy of the ion-electron system (eV)
  ---------------------------------------------------
  alpha Z        PSCENC =       122.54688800
  Ewald energy   TEWEN  =     -1830.62359913
  -Hartree energ DENC   =      -384.86898642
  -exchange      EXHF   =         0.00000000
  -V(xc)+E(xc)   XCENC  =       -60.20202216
  PAW double counting   =      2340.72392110    -2347.41296651
  entropy T*S    EENTRO =        -0.00383120
  eigenvalues    EBANDS =       159.38840202
  atomic energy  EATOM  =      1968.38345300
  Solvation  Ediel_sol  =         0.00000000
  ---------------------------------------------------
  free energy    TOTEN  =       -32.06874129 eV

  energy without entropy =      -32.06491010  energy(sigma->0) =      -32.06746423


--------------------------------------------------------------------------------------------------------




--------------------------------------- Iteration      1(  15)  ---------------------------------------


    POTLOK:  cpu time    0.1820: real time    0.1839
    SETDIJ:  cpu time    0.0830: real time    0.0835
     EDDAV:  cpu time   10.3284: real time   10.3896
       DOS:  cpu time    0.1110: real time    0.1109
    --------------------------------------------
      LOOP:  cpu time   10.7044: real time   10.7679

 eigenvalue-minimisations  :  3800
 total energy-change (2. order) : 0.4886152E-05  (-0.7007602E-06)
 number of electron      27.9999919 magnetization 
 augmentation part       13.8130939 magnetization 

 Free energy of the ion-electron system (eV)
  ---------------------------------------------------
  alpha Z        PSCENC =       122.54688800
  Ewald energy   TEWEN  =     -1830.62359913
  -Hartree energ DENC   =      -384.88501750
  -exchange      EXHF   =         0.00000000
  -V(xc)+E(xc)   XCENC  =       -60.20194451
  PAW double counting   =      2340.37437455    -2347.05553306
  entropy T*S    EENTRO =        -0.00382758
  eigenvalues    EBANDS =       159.39646983
  atomic energy  EATOM  =      1968.38345300
  Solvation  Ediel_sol  =         0.00000000
  ---------------------------------------------------
  free energy    TOTEN  =       -32.06873640 eV

  energy without entropy =      -32.06490882  energy(sigma->0) =      -32.06746054


--------------------------------------------------------------------------------------------------------




 average (electrostatic) potential at core
  the test charge radii are     1.0452  1.2064
  (the norm of the test charge is              1.0000)
       1 -80.5794       2 -80.5794       3 -38.2423       4 -38.2423
 
 
 
 E-fermi :   7.7936     XC(G=0): -12.7725     alpha+bet :-15.9473


 k-point     1 :       0.0000    0.0000    0.0000
  band No.  band energies     occupation 
      1       0.1570      2.00000
      2       3.8613      2.00000
      3       4.5160      2.00000
      4       4.8286      2.00000
      5       4.8363      2.00000
      6       5.7579      2.00000
      7       5.7579      2.00000
      8       5.8523      2.00000
      9       5.8523      2.00000
     10       6.5573      2.00000
     11       7.1538      2.00006
     12       7.1538      2.00006
     13       7.2289      2.00048
     14       8.0698     -0.06489
     15       8.2853     -0.00278
     16       9.2092     -0.00000
     17       9.4514     -0.00000
     18       9.6025     -0.00000

 k-point     2 :       0.0455    0.9830    0.0455
  band No.  band energies     occupation 
      1       0.2590      2.00000
      2       3.9019      2.00000
      3       4.5564      2.00000
      4       4.8054      2.00000
      5       4.8130      2.00000
      6       5.5222      2.00000
      7       5.5255      2.00000
      8       6.0650      2.00000
      9       6.0856      2.00000
     10       6.5512      2.00000
     11       7.1898      2.00017
     12       7.1929      2.00018
     13       7.2455      2.00074
     14       8.0236     -0.06902
[...]
     15       8.0297     -0.07029
     16       8.2312     -0.00832
     17       8.3629     -0.00043
     18       8.6250     -0.00000

 k-point   166 :       0.5000    0.7557    0.1364
  band No.  band energies     occupation 
      1       2.9992      2.00000
      2       4.2355      2.00000
      3       4.6634      2.00000
      4       5.0251      2.00000
      5       5.5088      2.00000
      6       5.6159      2.00000
      7       5.8184      2.00000
      8       6.0656      2.00000
      9       6.1211      2.00000
     10       6.3179      2.00000
     11       6.4809      2.00000
     12       6.7380      2.00000
     13       6.9774      2.00000
     14       7.1357      2.00003
     15       7.8857      0.30452
     16       8.2012     -0.01410
     17       8.3128     -0.00149
     18       8.6858     -0.00000

 k-point   167 :       0.0000    0.5682    0.6364
  band No.  band energies     occupation 
      1       2.3631      2.00000
      2       4.2085      2.00000
      3       4.8627      2.00000
      4       4.9782      2.00000
      5       5.2698      2.00000
      6       5.2801      2.00000
      7       5.3900      2.00000
      8       6.0742      2.00000
      9       6.2037      2.00000
     10       6.3872      2.00000
     11       6.4122      2.00000
     12       7.0462      2.00000
     13       7.2749      2.00151
     14       7.4256      2.02588
     15       7.9881     -0.04407
     16       8.2980     -0.00210
     17       8.3323     -0.00093
     18       9.0211     -0.00000

 k-point   168 :       0.4545    0.6477    0.0909
  band No.  band energies     occupation 
      1       3.2863      2.00000
      2       3.7970      2.00000
      3       4.8713      2.00000
      4       5.0120      2.00000
      5       5.3872      2.00000
      6       5.4922      2.00000
      7       5.7684      2.00000
      8       5.9778      2.00000
      9       6.0556      2.00000
     10       6.2417      2.00000
     11       6.3867      2.00000
     12       6.8209      2.00000
     13       7.0346      2.00000
     14       7.2966      2.00248
     15       7.9180      0.14058
     16       8.2305     -0.00842
     17       8.4255     -0.00007
     18       8.7077     -0.00000

 k-point   169 :       0.9545    0.4602    0.5909
  band No.  band energies     occupation 
      1       3.0083      2.00000
      2       3.8180      2.00000
      3       4.9526      2.00000
      4       5.0245      2.00000
      5       5.3074      2.00000
      6       5.3454      2.00000
      7       5.5827      2.00000
      8       5.9885      2.00000
      9       6.0306      2.00000
     10       6.3258      2.00000
     11       6.3840      2.00000
     12       6.9456      2.00000
     13       7.1486      2.00005
     14       7.4213      2.02436
     15       7.9368      0.06933
     16       8.2136     -0.01142
     17       8.4891     -0.00001
     18       8.8874     -0.00000

 k-point   170 :       0.4545    0.2727    0.0909
  band No.  band energies     occupation 
      1       2.5244      2.00000
      2       4.6924      2.00000
      3       4.7518      2.00000
      4       4.9124      2.00000
      5       5.5474      2.00000
      6       5.5999      2.00000
      7       5.7926      2.00000
      8       5.9808      2.00000
      9       5.9978      2.00000
     10       6.3554      2.00000
     11       6.4003      2.00000
     12       6.8209      2.00000
     13       7.1114      2.00002
     14       7.1318      2.00003
     15       7.7676      1.21759
     16       8.0965     -0.05400
     17       8.4526     -0.00003
     18       8.6867     -0.00000

 k-point   171 :       0.0000    0.1477    0.5455
  band No.  band energies     occupation 
      1       3.2357      2.00000
      2       3.7874      2.00000
      3       4.9192      2.00000
      4       5.0327      2.00000
      5       5.3540      2.00000
      6       5.5165      2.00000
      7       5.7306      2.00000
      8       5.9145      2.00000
      9       5.9593      2.00000
     10       6.2345      2.00000
     11       6.3347      2.00000
     12       6.8722      2.00000
     13       7.0872      2.00001
     14       7.3494      2.00736
     15       7.8909      0.27454
     16       8.2894     -0.00254
     17       8.4153     -0.00010
     18       8.7766     -0.00000

 k-point   172 :       0.4545    0.9773    0.0000
  band No.  band energies     occupation 
      1       3.0182      2.00000
      2       3.7721      2.00000
      3       5.1394      2.00000
      4       5.2237      2.00000
      5       5.3740      2.00000
      6       5.4321      2.00000
      7       5.6521      2.00000
      8       5.8848      2.00000
      9       5.9537      2.00000
     10       6.1408      2.00000
     11       6.2481      2.00000
     12       6.8461      2.00000
     13       7.2739      2.00148
     14       7.3895      2.01495
     15       7.7939      0.99737
     16       8.2446     -0.00644
     17       8.7318     -0.00000
     18       8.8553     -0.00000

 k-point   173 :       0.5000    0.9602    0.0455
  band No.  band energies     occupation 
      1       3.1183      2.00000
      2       3.7595      2.00000
      3       5.0941      2.00000
      4       5.2338      2.00000
      5       5.4586      2.00000
      6       5.4655      2.00000
      7       5.6698      2.00000
      8       5.8937      2.00000
      9       5.9460      2.00000
     10       6.1159      2.00000
     11       6.2615      2.00000
     12       6.8040      2.00000
     13       7.2318      2.00052
     14       7.3591      2.00882
     15       7.7767      1.14222
     16       8.2389     -0.00719
     17       8.4484     -0.00004
     18       8.8320     -0.00000

 k-point   174 :       0.9545    0.7898    0.5000
  band No.  band energies     occupation 
      1       2.8572      2.00000
      2       4.3433      2.00000
      3       4.8548      2.00000
      4       4.9408      2.00000
      5       5.4455      2.00000
      6       5.6898      2.00000
      7       5.7690      2.00000
      8       5.8797      2.00000
      9       6.0532      2.00000
     10       6.2131      2.00000
     11       6.2716      2.00000
     12       6.8144      2.00000
     13       7.0684      2.00000
     14       7.2350      2.00057
     15       7.8611      0.46321
     16       8.1919     -0.01644
     17       8.3964     -0.00017
     18       8.6856     -0.00000

 k-point   175 :       0.0000    0.7727    0.5455
  band No.  band energies     occupation 
      1       2.4445      2.00000
      2       4.7977      2.00000
      3       4.8745      2.00000
      4       4.8751      2.00000
      5       5.5157      2.00000
      6       5.6129      2.00000
      7       5.7723      2.00000
      8       5.8558      2.00000
      9       5.9618      2.00000
     10       6.2496      2.00000
     11       6.3182      2.00000
     12       6.8637      2.00000
     13       7.1615      2.00007
     14       7.1749      2.00011
     15       7.7636      1.25053
     16       8.0842     -0.05936
     17       8.5452     -0.00000
     18       8.6689     -0.00000

 k-point   176 :       0.0000    0.6477    0.5455
  band No.  band energies     occupation 
      1       2.5981      2.00000
      2       4.3194      2.00000
      3       4.9389      2.00000
      4       5.1921      2.00000
      5       5.5016      2.00000
      6       5.5747      2.00000
      7       5.6117      2.00000
      8       5.8906      2.00000
      9       5.9921      2.00000
     10       6.1962      2.00000
     11       6.2353      2.00000
     12       6.8543      2.00000
     13       7.2577      2.00100
     14       7.2702      2.00135
     15       7.7403      1.43327
     16       8.2297     -0.00854
     17       8.3863     -0.00023
     18       8.7882     -0.00000

 k-point   177 :       0.0000    0.2727    0.5455
  band No.  band energies     occupation 
      1       3.1224      2.00000
      2       4.3966      2.00000
      3       4.4932      2.00000
      4       4.8562      2.00000
      5       5.3225      2.00000
      6       5.5773      2.00000
      7       5.8056      2.00000
      8       5.8424      2.00000
      9       6.2505      2.00000
     10       6.2674      2.00000
     11       6.3121      2.00000
     12       6.8284      2.00000
     13       6.9782      2.00000
     14       7.2769      2.00158
     15       8.0274     -0.06989
     16       8.1896     -0.01704
     17       8.3824     -0.00025
     18       8.6806     -0.00000


--------------------------------------------------------------------------------------------------------


 soft charge-density along one line, spin component           1
         0         1         2         3         4         5         6         7         8         9
 total charge-density along one line
 
 pseudopotential strength for first ion, spin component:           1
 -1.546  -0.000   0.000   0.000   0.000  -2.149  -0.000   0.000
 -0.000  -1.546  -0.000  -0.000  -0.000  -0.000  -2.149  -0.000
  0.000  -0.000  -1.550   0.000   0.031   0.000  -0.000  -2.154
  0.000  -0.000   0.000  -1.540   0.000   0.000  -0.000   0.000
  0.000  -0.000   0.031   0.000  -1.514   0.000  -0.000   0.030
 -2.149  -0.000   0.000   0.000   0.000  -2.694  -0.000   0.000
 -0.000  -2.149  -0.000  -0.000  -0.000  -0.000  -2.694  -0.000
  0.000  -0.000  -2.154   0.000   0.030   0.000  -0.000  -2.699
  0.000  -0.000   0.000  -2.144   0.000   0.000  -0.000   0.000
  0.000  -0.000   0.030   0.000  -2.119   0.000  -0.000   0.029
  0.000  -0.000   0.001   0.000   0.002   0.000  -0.000   0.001
  0.000  -0.000   0.002   0.000   0.004   0.000  -0.000   0.002
 -0.000  -0.000  -0.003  -0.000   0.002  -0.000  -0.000  -0.003
 -0.000  -0.003  -0.000  -0.000   0.000  -0.000  -0.003  -0.000
  0.003  -0.000   0.000  -0.000  -0.000   0.003  -0.000   0.000
 -0.000  -0.000  -0.003  -0.000   0.002  -0.000  -0.000  -0.003
 -0.000  -0.003  -0.000  -0.000   0.000  -0.000  -0.003  -0.000
  0.003  -0.000   0.000  -0.000  -0.000   0.003  -0.000   0.000
 total augmentation occupancy for first ion, spin component:           1
  1.411   0.000  -0.000   0.000   0.000  -0.363   0.000   0.000   0.000   0.000   0.000   0.000   0.000   0.000   0.113   0.000
  0.000   1.411  -0.000   0.000   0.000   0.000  -0.363   0.000   0.000  -0.000   0.000   0.000   0.000  -0.113  -0.000  -0.000
  0.000  -0.000   1.930   0.000   0.257   0.000  -0.000  -0.657   0.000  -0.110   0.028   0.000  -0.110   0.000   0.000   0.005
  0.000   0.000  -0.000   1.619   0.000  -0.000   0.000   0.000  -0.360   0.000   0.000   0.000  -0.000   0.000   0.000   0.000
  0.000   0.000   0.257   0.000   2.226   0.000   0.000  -0.110   0.000  -0.784   0.049   0.001   0.064   0.000   0.000  -0.003
 -0.363   0.000   0.000  -0.000   0.000   0.819   0.000   0.000   0.000   0.000   0.000   0.000   0.000   0.000  -0.065   0.000
  0.000  -0.363  -0.000   0.000  -0.000   0.000   0.819   0.000   0.000   0.000   0.000  -0.000   0.000   0.065   0.000  -0.000
  0.000   0.000  -0.657   0.000  -0.110   0.000  -0.000   0.910   0.000   0.033   0.002   0.002   0.062   0.000   0.000  -0.006
  0.000   0.000   0.000  -0.360   0.000   0.000   0.000   0.000   0.754   0.000   0.000   0.000  -0.000   0.000  -0.000   0.000
 -0.000   0.000  -0.110  -0.000  -0.784   0.000   0.000   0.033   0.000   0.947   0.003   0.003  -0.036  -0.000   0.000   0.003
  0.000  -0.000   0.028   0.000   0.049   0.000   0.000   0.002   0.000   0.003   2.099  -0.190   0.000   0.000   0.000   0.000
  0.000   0.000   0.000   0.000   0.001   0.000  -0.000   0.002   0.000   0.003  -0.190   0.023   0.000  -0.000   0.000   0.000
  0.000  -0.000  -0.110  -0.000   0.064   0.000   0.000   0.062   0.000  -0.036   0.000   0.000   0.287  -0.000   0.000  -0.024
  0.000  -0.113  -0.000  -0.000  -0.000   0.000   0.065  -0.000   0.000  -0.000   0.000   0.000   0.000   0.291   0.000   0.000
  0.113  -0.000   0.000  -0.000   0.000  -0.065   0.000   0.000  -0.000   0.000   0.000   0.000   0.000   0.000   0.291   0.000
  0.000   0.000   0.005   0.000  -0.003   0.000   0.000  -0.006   0.000   0.003   0.000   0.000  -0.024   0.000   0.000   0.002
  0.000   0.005   0.000   0.000   0.000   0.000  -0.006   0.000   0.000   0.000   0.000   0.000   0.000  -0.023   0.000   0.000
 -0.005   0.000   0.000  -0.000   0.000   0.006   0.000   0.000  -0.000   0.000   0.000   0.000   0.000   0.000  -0.023   0.000


------------------------ aborting loop because EDIFF is reached ----------------------------------------



 ----------------------------------------------------------------------------- 
|                                                                             |
|  ADVICE TO THIS USER RUNNING 'VASP/VAMP'   (HEAR YOUR MASTER'S VOICE ...):  |
|                                                                             |
|      Your highest band is occupied at some k-points! Unless you are         |
|      performing a calculation for an insulator or semiconductor, without    |
|      unoccupied bands, you have included TOO FEW BANDS!! Please increase    |
|      the parameter NBANDS in file INCAR to ensure that the highest band     |
|      is unoccupied at all k-points. It is always recommended to             |
|      include a few unoccupied bands to accelerate the convergence of        |
|      molecular dynamics runs (even for insulators or semiconductors).       |
|      Because the presence of unoccupied bands improves wavefunction         |
|      prediction, and helps to suppress 'band-crossings.'                    |
|      Following all k-points will be listed (with the Fermi weights of       |
|      the highest band given in paranthesis) ... :                           |
|                                                                             |
|                         44       (-0.01024)                                 |
|                                                                             |
|      The total occupancy of band no.    18 is  -0.00004 electrons ...       |
|                                                                             |
 ----------------------------------------------------------------------------- 

    CHARGE:  cpu time    2.0397: real time    2.0467
    FORLOC:  cpu time    0.0190: real time    0.0191
    FORNL :  cpu time    4.2544: real time    4.2680
    STRESS:  cpu time    5.7441: real time    5.7718
    FORCOR:  cpu time    0.1850: real time    0.1864
    FORHAR:  cpu time    0.0500: real time    0.0506
    MIXING:  cpu time    0.0090: real time    0.0095
    OFIELD:  cpu time    0.0000: real time    0.0001

  FORCE on cell =-STRESS in cart. coord.  units (eV):
  Direction    XX          YY          ZZ          XY          YZ          ZX
  --------------------------------------------------------------------------------------
  Alpha Z   122.54689   122.54689   122.54689
  Ewald    -619.35385  -591.91655  -619.35385     0.00000    -0.00000     0.00000
  Hartree   118.70931   147.48136   118.70931    -0.00003     0.00003    -0.00000
  E(xc)    -135.07953  -135.78434  -135.07953     0.00002    -0.00002     0.00001
  Local     -50.22799  -107.06137   -50.22799    -0.00011     0.00011    -0.00006
  n-local   -12.79342   -15.40337   -12.93621    -0.12674     0.23933    -3.47012
  augment   348.27070   350.63309   348.27070     0.00066    -0.00066    -0.00051
  Kinetic   222.26731   225.95972   223.08013     0.13920    -0.32991    -2.70218
  Fock        0.00000     0.00000     0.00000     0.00000     0.00000     0.00000
  -------------------------------------------------------------------------------------
  Total      -5.32555    -3.54457    -5.32555     0.00000    -0.00000     0.00000
  in kB    -171.21100  -113.95432  -171.21100     0.00000    -0.00000     0.00000
  external pressure =     -152.13 kB  Pullay stress =        0.00 kB


 VOLUME and BASIS-vectors are now :
 -----------------------------------------------------------------------------
  energy-cutoff  :      267.97
  volume of cell :       49.84
      direct lattice vectors                 reciprocal lattice vectors
     0.000000000  0.000000000  3.680000000     0.000000000 -0.135869565  0.271739130
    -1.840000000  3.680000000  1.840000000     0.000000000  0.271739130  0.000000000
    -3.680000000  0.000000000  0.000000000    -0.271739130 -0.135869565  0.000000000

  length of vectors
     3.680000000  4.507061127  3.680000000     0.303813584  0.271739130  0.303813584


 FORCES acting on ions
    electron-ion (+dipol)            ewald-force                    non-local-force                 convergence-correction
 -----------------------------------------------------------------------------------------------
   0.415E-05 0.661E-07 0.436E-05   -.120E-14 -.114E-13 0.668E-15   0.000E+00 0.000E+00 0.347E-17   -.500E-07 -.218E-13 -.500E-07
   -.415E-05 -.661E-07 -.436E-05   -.555E-14 0.123E-13 -.484E-14   0.000E+00 0.000E+00 -.217E-17   0.500E-07 -.277E-13 0.500E-07
   -.116E-05 0.146E-07 -.128E-05   0.350E-15 -.278E-14 0.499E-14   0.173E-17 0.000E+00 0.195E-17   -.650E-08 0.241E-14 -.650E-08
   0.116E-05 -.146E-07 0.128E-05   0.565E-14 0.237E-14 -.989E-15   -.867E-18 0.000E+00 -.217E-17   0.650E-08 0.164E-14 0.650E-08
 -----------------------------------------------------------------------------------------------
   -.313E-12 0.469E-12 0.386E-12   -.754E-15 0.586E-15 -.166E-15   0.867E-18 0.000E+00 0.108E-17   0.836E-13 -.455E-13 -.468E-13
 
 
 POSITION                                       TOTAL-FORCE (eV/Angst)
 -----------------------------------------------------------------------------------
      0.00000      0.00000      0.00000         0.000000      0.000000     -0.000000
     -3.68000      1.84000      1.84000        -0.000000      0.000000     -0.000000
     -1.84000      0.00000      1.84000         0.000000      0.000000      0.000000
     -1.84000      1.84000      3.68000        -0.000000      0.000000      0.000000
 -----------------------------------------------------------------------------------
    total drift:                               -0.000000      0.000000      0.000000


--------------------------------------------------------------------------------------------------------



  FREE ENERGIE OF THE ION-ELECTRON SYSTEM (eV)
  ---------------------------------------------------
  free  energy   TOTEN  =       -32.06873640 eV

  energy  without entropy=      -32.06490882  energy(sigma->0) =      -32.06746054
 


--------------------------------------------------------------------------------------------------------


    POTLOK:  cpu time    0.2280: real time    0.2284


--------------------------------------------------------------------------------------------------------


 writing wavefunctions
     LOOP+:  cpu time  353.6672: real time  355.6704
    4ORBIT:  cpu time    0.0000: real time    0.0000

 total amount of memory used by VASP MPI-rank0    93044. kBytes
=======================================================================

   base      :      30000. kBytes
   nonl-proj :      25877. kBytes
   fftplans  :       2744. kBytes
   grid      :       4846. kBytes
   one-center:         62. kBytes
   wavefun   :      29515. kBytes
 
  
  
 General timing and accounting informations for this job:
 ========================================================
  
                  Total CPU time used (sec):      356.491
                            User time (sec):      355.711
                          System time (sec):        0.780
                         Elapsed time (sec):      358.991
  
                   Maximum memory used (kb):       90600.
                   Average memory used (kb):           0.
  
                          Minor page faults:        24608
                          Major page faults:           10
                 Voluntary context switches:          253
