BEGIN_CFG
 Size
    2
 Supercell
         1.885000      1.885000      0.000000
        -1.885000      1.885000      0.000000
         0.000000      0.000000      3.770000
 AtomData:  id type       cartes_x      cartes_y      cartes_z           fx          fy          fz
            1    0       0.000000      0.000000      0.000000     -0.000000    0.000000    0.000000
            2    2       0.000000      1.885000      1.885000     0.000000    -0.000000    0.000000
 Energy
        -19.932637690000
 PlusStress:  xx          yy          zz          yz          xz          xy
        -1.26445    -1.26445    -1.83619     0.00000     0.00000     0.00000
 Feature   EFS_by	VASP
END_CFG

BEGIN_CFG
 Size
    2
 Supercell
         1.885000      1.885000      0.000000
        -1.885000      1.885000      0.000000
         0.000000      0.000000      3.770000
 AtomData:  id type       cartes_x      cartes_y      cartes_z           fx          fy          fz
            1    0       0.000000      0.000000      0.000000     -0.000000    0.000000    0.000000
            2    2       0.000000      1.885000      1.885000     0.000000    -0.000000    0.000000
 Energy
        -19.932637690000
 PlusStress:  xx          yy          zz          yz          xz          xy
        -1.26445    -1.26445    -1.83619     0.00000     0.00000     0.00000
 Feature   EFS_by	VASP
END_CFG

BEGIN_CFG
 Size
    4
 Supercell
         1.870000      1.870000      0.000000
        -1.870000      1.870000      3.740000
         1.870000     -1.870000      3.740000
 AtomData:  id type       cartes_x      cartes_y      cartes_z           fx          fy          fz
            1    0       0.000000      0.000000      0.000000     -0.000000    0.000000    -0.000000
            2    1       0.000000      1.870000      1.870000     0.000000    0.000000    0.000000
            3    1       1.870000      0.000000      1.870000     0.000000    -0.000000    0.000000
            4    1       0.000000      0.000000      3.740000     -0.000000    0.000000    -0.000000
 Energy
        -33.313779060000
 PlusStress:  xx          yy          zz          yz          xz          xy
        -2.10359    -2.10359    -2.61367     0.00000     0.00000    -0.22623
 Feature   EFS_by	VASP
END_CFG

BEGIN_CFG
 Size
    4
 Supercell
         1.915000      1.915000      0.000000
        -3.830000      5.745000      5.745000
         0.000000     -1.915000      1.915000
 AtomData:  id type       cartes_x      cartes_y      cartes_z           fx          fy          fz
            1    0       0.000000      0.000000      0.000000     -0.265478    0.265478    0.265478
            2    1       0.000000      1.915000      1.915000     1.331260    -1.331260    -1.331260
            3    2       -1.915000      1.915000      3.830000     1.048357    -1.048357    -1.048357
            4    2       -1.915000      3.830000      5.745000     -2.114139    2.114139    2.114139
 Energy
        -40.046676100000
 PlusStress:  xx          yy          zz          yz          xz          xy
         3.60168     3.60168     3.60168     0.60003    -0.60003    -0.60003
 Feature   EFS_by	VASP
END_CFG

BEGIN_CFG
 Size
    4
 Supercell
         1.895000      1.895000      0.000000
        -1.895000      1.895000      3.790000
         1.895000     -1.895000      3.790000
 AtomData:  id type       cartes_x      cartes_y      cartes_z           fx          fy          fz
            1    0       0.000000      0.000000      0.000000     0.000000    0.000000    0.000000
            2    1       1.895000      0.000000      1.895000     0.000000    0.000000    0.000000
            3    1       0.000000      0.000000      3.790000     -0.000000    -0.000000    -0.000000
            4    2       0.000000      1.895000      1.895000     0.000000    0.000000    0.000000
 Energy
        -37.134034800000
 PlusStress:  xx          yy          zz          yz          xz          xy
        -1.45364    -1.45364    -1.48978    -0.01721     0.01721     0.05312
 Feature   EFS_by	VASP
END_CFG

BEGIN_CFG
 Size
    4
 Supercell
         1.945000      1.945000      0.000000
        -3.890000      1.945000      1.945000
         1.945000     -1.945000      3.890000
 AtomData:  id type       cartes_x      cartes_y      cartes_z           fx          fy          fz
            1    1       0.000000      0.000000      0.000000     0.041258    -0.041258    0.508499
            2    1       -0.000000      1.945000      1.945000     -0.041258    0.041258    -0.508499
            3    2       1.945000      0.000000      1.945000     -0.006546    0.006546    -0.744184
            4    2       0.000000      0.000000      3.890000     0.006546    -0.006546    0.744184
 Energy
        -42.325994380000
 PlusStress:  xx          yy          zz          yz          xz          xy
         2.17960     2.17960     1.85910     0.17141    -0.17141     0.34322
 Feature   EFS_by	VASP
END_CFG

BEGIN_CFG
 Size
    2
 Supercell
         1.840000      1.840000      0.000000
        -1.840000      1.840000      3.680000
         0.000000     -1.840000      1.840000
 AtomData:  id type       cartes_x      cartes_y      cartes_z           fx          fy          fz
            1    0       0.000000      0.000000      0.000000     -0.000000    0.000000    0.000000
            2    1       0.000000      1.840000      1.840000     0.000000    -0.000000    0.000000
 Energy
        -15.817428550000
 PlusStress:  xx          yy          zz          yz          xz          xy
        -2.12462    -2.12462    -2.12462    -0.12062     0.12062     0.12062
 Feature   EFS_by	VASP
END_CFG

BEGIN_CFG
 Size
    4
 Supercell
         1.830000      1.830000      0.000000
        -3.660000      1.830000      1.830000
         1.830000     -1.830000      3.660000
 AtomData:  id type       cartes_x      cartes_y      cartes_z           fx          fy          fz
            1    0       0.000000      1.830000      1.830000     0.003388    -0.003388    0.553322
            2    0       1.830000      0.000000      1.830000     -0.000000    -0.000000    -0.000000
            3    0       0.000000      0.000000      3.660000     -0.003388    0.003388    -0.553322
            4    2       0.000000      0.000000      0.000000     -0.000000    -0.000000    -0.000000
 Energy
        -33.389010840000
 PlusStress:  xx          yy          zz          yz          xz          xy
        -3.26928    -3.26928    -3.81234    -0.05270     0.05270     0.66045
 Feature   EFS_by	VASP
END_CFG

BEGIN_CFG
 Size
    2
 Supercell
         1.840000      1.840000      0.000000
        -1.840000      1.840000      0.000000
         0.000000      0.000000      3.680000
 AtomData:  id type       cartes_x      cartes_y      cartes_z           fx          fy          fz
            1    0       0.000000      0.000000      0.000000     -0.000000    0.000000    0.000000
            2    1       0.000000      1.840000      1.840000     0.000000    -0.000000    0.000000
 Energy
        -16.138213340000
 PlusStress:  xx          yy          zz          yz          xz          xy
        -2.12419    -2.12419    -3.26175     0.00000    -0.00000     0.00000
 Feature   EFS_by	VASP
END_CFG

BEGIN_CFG
 Size
    4
 Supercell
         0.000000      0.000000      3.680000
        -1.840000      3.680000      1.840000
        -3.680000      0.000000      0.000000
 AtomData:  id type       cartes_x      cartes_y      cartes_z           fx          fy          fz
            1    0       0.000000      0.000000      0.000000     0.000000    0.000000    -0.000000
            2    0       -3.680000      1.840000      1.840000     -0.000000    0.000000    -0.000000
            3    1       -1.840000      0.000000      1.840000     0.000000    0.000000    0.000000
            4    1       -1.840000      1.840000      3.680000     -0.000000    0.000000    0.000000
 Energy
        -32.068736400000
 PlusStress:  xx          yy          zz          yz          xz          xy
        -5.32555    -3.54457    -5.32555    -0.00000     0.00000     0.00000
 Feature   EFS_by	VASP
END_CFG

BEGIN_CFG
 Size
    4
 Supercell
         1.925000      1.925000      0.000000
        -3.850000      5.775000      5.775000
         0.000000     -1.925000      1.925000
 AtomData:  id type       cartes_x      cartes_y      cartes_z           fx          fy          fz
            1    1       0.000000      1.925000      1.925000     -0.619341    0.619341    0.619341
            2    1       -1.925000      1.925000      3.850000     0.000000    -0.000000    -0.000000
            3    1       -1.925000      3.850000      5.775000     0.619341    -0.619341    -0.619341
            4    2       0.000000      0.000000      0.000000     0.000000    0.000000    -0.000000
 Energy
        -38.430164210000
 PlusStress:  xx          yy          zz          yz          xz          xy
         1.38634     1.38634     1.38634    -0.22930     0.22930     0.22930
 Feature   EFS_by	VASP
END_CFG

