phonopy:
  version: 1.11.6
  configuration:
    dim: "3 3 3"
    create_displacements: ".true."

supercell_matrix:
- [   3,   0,   0 ]
- [   0,   3,   0 ]
- [   0,   0,   3 ]

primitive_cell:
  lattice:
  - [     0.000000000000000,     1.963500000000000,     1.963500000000000 ] # a
  - [     1.963500000000000,     0.000000000000000,     1.963500000000000 ] # b
  - [     1.963500000000000,     1.963500000000000,     0.000000000000000 ] # c
  points:
  - symbol: Pd # 1
    coordinates: [  0.000000000000000,  0.000000000000000,  0.000000000000000 ]
    mass: 106.420000
  reciprocal_lattice: # without 2pi
  - [    -0.254647313470843,     0.254647313470843,     0.254647313470843 ] # a*
  - [     0.254647313470843,    -0.254647313470843,     0.254647313470843 ] # b*
  - [     0.254647313470843,     0.254647313470843,    -0.254647313470843 ] # c*

unit_cell:
  lattice:
  - [     0.000000000000000,     1.963500000000000,     1.963500000000000 ] # a
  - [     1.963500000000000,     0.000000000000000,     1.963500000000000 ] # b
  - [     1.963500000000000,     1.963500000000000,     0.000000000000000 ] # c
  points:
  - symbol: Pd # 1
    coordinates: [  0.000000000000000,  0.000000000000000,  0.000000000000000 ]
    mass: 106.420000
    reduced_to: 1

supercell:
  lattice:
  - [     0.000000000000000,     5.890500000000000,     5.890500000000000 ] # a
  - [     5.890500000000000,     0.000000000000000,     5.890500000000000 ] # b
  - [     5.890500000000000,     5.890500000000000,     0.000000000000000 ] # c
  points:
  - symbol: Pd # 1
    coordinates: [  0.000000000000000,  0.000000000000000,  0.000000000000000 ]
    mass: 106.420000
    reduced_to: 1
  - symbol: Pd # 2
    coordinates: [  0.333333333333333,  0.000000000000000,  0.000000000000000 ]
    mass: 106.420000
    reduced_to: 1
  - symbol: Pd # 3
    coordinates: [  0.666666666666667,  0.000000000000000,  0.000000000000000 ]
    mass: 106.420000
    reduced_to: 1
  - symbol: Pd # 4
    coordinates: [  0.000000000000000,  0.333333333333333,  0.000000000000000 ]
    mass: 106.420000
    reduced_to: 1
  - symbol: Pd # 5
    coordinates: [  0.333333333333333,  0.333333333333333,  0.000000000000000 ]
    mass: 106.420000
    reduced_to: 1
  - symbol: Pd # 6
    coordinates: [  0.666666666666667,  0.333333333333333,  0.000000000000000 ]
    mass: 106.420000
    reduced_to: 1
  - symbol: Pd # 7
    coordinates: [  0.000000000000000,  0.666666666666667,  0.000000000000000 ]
    mass: 106.420000
    reduced_to: 1
  - symbol: Pd # 8
    coordinates: [  0.333333333333333,  0.666666666666667,  0.000000000000000 ]
    mass: 106.420000
    reduced_to: 1
  - symbol: Pd # 9
    coordinates: [  0.666666666666667,  0.666666666666667,  0.000000000000000 ]
    mass: 106.420000
    reduced_to: 1
  - symbol: Pd # 10
    coordinates: [  0.000000000000000,  0.000000000000000,  0.333333333333333 ]
    mass: 106.420000
    reduced_to: 1
  - symbol: Pd # 11
    coordinates: [  0.333333333333333,  0.000000000000000,  0.333333333333333 ]
    mass: 106.420000
    reduced_to: 1
  - symbol: Pd # 12
    coordinates: [  0.666666666666667,  0.000000000000000,  0.333333333333333 ]
    mass: 106.420000
    reduced_to: 1
  - symbol: Pd # 13
    coordinates: [  0.000000000000000,  0.333333333333333,  0.333333333333333 ]
    mass: 106.420000
    reduced_to: 1
  - symbol: Pd # 14
    coordinates: [  0.333333333333333,  0.333333333333333,  0.333333333333333 ]
    mass: 106.420000
    reduced_to: 1
  - symbol: Pd # 15
    coordinates: [  0.666666666666667,  0.333333333333333,  0.333333333333333 ]
    mass: 106.420000
    reduced_to: 1
  - symbol: Pd # 16
    coordinates: [  0.000000000000000,  0.666666666666667,  0.333333333333333 ]
    mass: 106.420000
    reduced_to: 1
  - symbol: Pd # 17
    coordinates: [  0.333333333333333,  0.666666666666667,  0.333333333333333 ]
    mass: 106.420000
    reduced_to: 1
  - symbol: Pd # 18
    coordinates: [  0.666666666666667,  0.666666666666667,  0.333333333333333 ]
    mass: 106.420000
    reduced_to: 1
  - symbol: Pd # 19
    coordinates: [  0.000000000000000,  0.000000000000000,  0.666666666666667 ]
    mass: 106.420000
    reduced_to: 1
  - symbol: Pd # 20
    coordinates: [  0.333333333333333,  0.000000000000000,  0.666666666666667 ]
    mass: 106.420000
    reduced_to: 1
  - symbol: Pd # 21
    coordinates: [  0.666666666666667,  0.000000000000000,  0.666666666666667 ]
    mass: 106.420000
    reduced_to: 1
  - symbol: Pd # 22
    coordinates: [  0.000000000000000,  0.333333333333333,  0.666666666666667 ]
    mass: 106.420000
    reduced_to: 1
  - symbol: Pd # 23
    coordinates: [  0.333333333333333,  0.333333333333333,  0.666666666666667 ]
    mass: 106.420000
    reduced_to: 1
  - symbol: Pd # 24
    coordinates: [  0.666666666666667,  0.333333333333333,  0.666666666666667 ]
    mass: 106.420000
    reduced_to: 1
  - symbol: Pd # 25
    coordinates: [  0.000000000000000,  0.666666666666667,  0.666666666666667 ]
    mass: 106.420000
    reduced_to: 1
  - symbol: Pd # 26
    coordinates: [  0.333333333333333,  0.666666666666667,  0.666666666666667 ]
    mass: 106.420000
    reduced_to: 1
  - symbol: Pd # 27
    coordinates: [  0.666666666666667,  0.666666666666667,  0.666666666666667 ]
    mass: 106.420000
    reduced_to: 1
