32
dft_energy=-111.50611391 dft_virial="47.00388322     -18.22419447      -0.50199848     -18.22419447      54.04145905      19.00879682      -0.50199848      19.00879682      33.95370686" config_type=liq cutoff=-1.00000000 nneightol=1.20000000 pbc="T T T" Lattice="0.00000000       8.22342000       0.00000000       0.00000000       0.00000000       8.22342000       8.22342000       0.00000000       0.00000000" Properties=species:S:1:pos:R:3:Z:I:1:dft_force:R:3
Pd              7.64505000      0.42916000      0.40751000      46      0.67585000      2.68331900      1.93819200
Pd              3.32491000      1.59693000      7.85042000      46     -1.80708200      1.62428200     -0.41935800
Pd              8.11930000      2.41908000      2.33755000      46      1.37963600     -2.21660000     -1.48977900
Pd              8.04978000      0.50634000      4.51013000      46     -1.13575800      0.67197500     -0.20970600
Pd              1.86247000      2.29516000      4.60145000      46      0.59977400     -0.23839500      0.03158800
Pd              0.25175000      6.53451000      2.10462000      46     -0.79356400     -0.25396500      0.55720000
Pd              5.12789000      0.07024000      8.13904000      46      1.43647200     -1.34005300      1.27575600
Pd              3.70080000      2.00123000      2.25927000      46     -0.61404800     -0.07906900     -0.30744000
Pd              6.04152000      7.87093000      5.75106000      46      0.32530900     -0.81489500     -0.15415100
Pd              3.49689000      0.13247000      5.73236000      46     -0.91099900      4.27349900     -1.61706400
Pd              3.88382000      4.10084000      8.21835000      46     -0.39675800      0.52084000      0.25729200
Pd              7.29190000      6.45525000      8.04268000      46     -1.25616200     -2.56232500     -1.17129900
Pd              4.94274000      6.09214000      1.49914000      46     -0.17295200      1.25043900     -1.35919300
Pd              6.46835000      5.88710000      3.72692000      46     -1.23341800      2.39821900     -1.51466300
Pd              6.41701000      4.60419000      6.50754000      46      0.42763800      0.31857400      1.22704400
Pd              4.06003000      6.37551000      6.73318000      46     -0.02502600     -2.31995000      3.48289100
Ag              2.73281000      7.34337000      0.71592000      47     -0.81873200      0.25354400      0.80451100
Ag              1.19903000      8.11540000      6.78065000      47     -0.44928400      0.02152000      0.11725100
Ag              7.28594000      2.15034000      6.25350000      47      0.92224200     -1.00419200     -2.24603200
Ag              0.82487000      2.63299000      8.00533000      47      1.04749700     -0.31467100      0.30499200
Ag              1.26763000      5.07542000      0.25615000      47      0.89603400      0.05309400     -0.57376200
Ag              2.61891000      4.55483000      2.85992000      47     -0.15153700     -0.18145700     -0.95066000
Ag              7.80587000      3.82011000      4.27642000      47      0.36733200     -0.64929200      0.85044000
Ag              1.77035000      8.05644000      3.37464000      47      1.22089200      1.12679100     -1.40423800
Ag              2.01134000      4.82646000      5.47248000      47      2.49963400     -1.99796600      1.62593900
Ag              0.10573000      6.10247000      5.24084000      47     -0.98411600      3.62007100      1.58067800
Ag              6.00844000      2.50604000      8.19387000      47     -1.64449600      0.33334600      2.14571200
Ag              5.97804000      0.68984000      2.97189000      47      0.04234600     -0.97396800     -1.46097500
Ag              3.90467000      7.00840000      3.66675000      47      1.82766200     -0.33442400     -0.82385000
Ag              4.94412000      2.41328000      4.61105000      47     -0.18471300     -0.77765000      0.89582000
Ag              6.14582000      4.02562000      1.98348000      47     -0.03795100     -1.06662800      0.46467400
Ag              4.54473000      4.88007000      4.94143000      47     -1.05172100     -2.02401200     -1.85780600
32
dft_energy=-107.90219895 dft_virial="44.24322306      19.44515290      -6.14118494      19.44515290      42.60317996      11.17609475      -6.14118494      11.17609475      75.41584677" config_type=liq cutoff=-1.00000000 nneightol=1.20000000 pbc="T T T" Lattice="0.00000000       8.22342000       0.00000000       0.00000000       0.00000000       8.22342000       8.22342000       0.00000000       0.00000000" Properties=species:S:1:pos:R:3:Z:I:1:dft_force:R:3
Pd              7.66036000      0.90516000      1.54453000      46     -1.27581700      0.14345500     -0.11578500
Pd              2.91211000      1.05698000      7.47683000      46      1.95306500      0.50809400     -0.25624300
Pd              0.23357000      3.95788000      1.54846000      46      2.29644300      0.48789500      1.94206400
Pd              7.85160000      0.86145000      4.06529000      46      0.33838700     -3.45590400     -6.48322800
Pd              1.44710000      2.55614000      4.03913000      46      0.78304400      2.34236600      1.05393800
Pd              1.01811000      6.41970000      3.04889000      46      0.31099000     -0.61440200      0.59142700
Pd              5.66235000      8.16376000      7.72542000      46     -0.27975500     -0.40620900     -0.02499100
Pd              3.54798000      2.34400000      1.57773000      46      1.09090000      0.50411300     -1.07223200
Pd              6.15520000      6.51395000      5.34545000      46     -0.50195100      4.44535700      4.02891200
Pd              1.58005000      8.08719000      5.32898000      46      2.32810100      2.45045000     -1.34244300
Pd              3.93391000      4.42900000      0.18695000      46      1.10565500      0.76420900     -0.26800600
Pd              7.43619000      6.50851000      0.56264000      46      1.60626500     -1.22241100     -0.44776100
Pd              5.38894000      6.17107000      1.65462000      46     -5.69214300     -1.31780200     -2.73373100
Pd              6.77651000      6.76203000      3.28061000      46      3.72341100      1.99620500     -2.07972600
Pd              6.21025000      4.72079000      6.81215000      46      0.34055400     -2.07789000      3.49879500
Pd              3.84729000      6.67413000      6.37308000      46     -1.34125700     -0.37725100      1.49462600
Ag              2.32889000      7.07733000      0.99356000      47      3.91731300     -0.05251300      0.08841700
Ag              0.68025000      8.21041000      7.70895000      47     -1.69450200      0.61199800     -1.23718400
Ag              7.25255000      1.64979000      5.97063000      47     -1.82241600      2.77752200      6.33484800
Ag              0.64574000      2.78951000      7.64164000      47      0.75147900     -1.01663700     -1.13726800
Ag              1.47986000      5.23390000      8.00576000      47      0.37115400     -1.55528000     -0.50207700
Ag              3.25236000      4.55791000      2.76725000      47     -1.98479800      0.77734600     -0.34618300
Ag              7.69221000      4.49630000      4.59539000      47     -1.50192800     -4.58659200     -3.25589100
Ag              1.89480000      0.79401000      2.37290000      47     -0.73858900     -0.72915200      1.19931000
Ag              3.12675000      3.51146000      6.12646000      47     -0.92622700     -0.41628500     -0.22649300
Ag              0.75412000      5.89335000      5.79959000      47      1.57607100      1.54198200      1.41398200
Ag              6.05606000      2.46927000      0.12368000      47     -0.78728200      0.10503000     -0.94785700
Ag              4.98144000      0.65154000      2.87216000      47      2.62350100      2.20110700     -2.84835500
Ag              3.76643000      7.09051000      3.77924000      47     -2.19377200     -2.33557000      0.82834500
Ag              4.78802000      1.18057000      5.31388000      47     -1.19895400      0.16161300      1.29681600
Ag              6.28021000      3.62898000      2.35686000      47     -3.01945800     -0.48120500      1.69081300
Ag              4.95716000      4.46007000      4.56116000      47     -0.15748400     -1.17363900     -0.13683900
32
dft_energy=-108.84002033 dft_virial="57.91486415      -8.49620683       5.71887228      -8.49620683      45.47600004      -3.46129354       5.71887228      -3.46129354      62.49595907" config_type=liq cutoff=-1.00000000 nneightol=1.20000000 pbc="T T T" Lattice="0.00000000       8.22342000       0.00000000       0.00000000       0.00000000       8.22342000       8.22342000       0.00000000       0.00000000" Properties=species:S:1:pos:R:3:Z:I:1:dft_force:R:3
Pd              7.25450000      1.62645000      1.46781000      46      2.70093600     -1.01856000      0.62106400
Pd              3.06696000      0.89378000      7.65802000      46     -0.98234500     -0.03740200     -0.32960300
Pd              0.76790000      4.04739000      2.11283000      46     -3.66200300      2.26623800     -5.59204000
Pd              7.38131000      0.82028000      3.93870000      46      1.15344400      0.01952100     -3.06480300
Pd              1.35713000      3.00480000      3.94326000      46      1.01375500     -3.26359000      2.61658000
Pd              1.57420000      6.48808000      3.41440000      46     -2.65074400      1.85322700     -2.45585000
Pd              5.25829000      7.83176000      7.82135000      46      1.32198600      0.97895500     -1.12181900
Pd              3.60807000      2.65698000      1.18543000      46     -2.71021900     -0.03215600     -0.12686500
Pd              6.79697000      7.37910000      5.73326000      46     -0.53821100     -2.22700800     -0.41214900
Pd              1.65615000      0.53405000      5.15555000      46     -1.49245500     -1.99361300     -0.06824600
Pd              4.62419000      4.67999000      8.04644000      46     -4.88468800      4.46196000      0.37863800
Pd              7.51881000      5.94314000      0.69228000      46      2.63839600      0.39082900      2.39062700
Pd              5.15737000      6.43035000      1.57294000      46      1.03238000     -2.32550400      0.05960200
Pd              7.04824000      6.63711000      2.94629000      46      1.67919400      0.30153000      3.68438000
Pd              6.76482000      5.06872000      7.00596000      46      1.21801700     -1.27498500     -3.62359000
Pd              3.46622000      6.14951000      6.44320000      46     -0.39884600      2.55697700     -1.84176900
Ag              2.94286000      7.06569000      0.95336000      47     -2.97528100      0.22823700     -0.05201900
Ag              0.31164000      8.05626000      7.84615000      47      0.57795400      0.46597900     -0.28127700
Ag              6.87056000      1.60373000      6.10518000      47     -0.55517500      2.41514500      3.22425500
Ag              0.89027000      2.59746000      7.61264000      47     -1.03136000     -0.78386100      0.31980200
Ag              1.92998000      4.88607000      7.95882000      47     -1.03022500     -0.00796900      0.88539400
Ag              3.05877000      4.62002000      2.82090000      47      2.57008400     -0.40699800      0.05580700
Ag              7.39840000      3.76203000      4.56000000      47     -0.93193400      0.78362900      0.21972200
Ag              1.58340000      0.96544000      2.31018000      47      0.23354000     -0.58643100     -0.52566700
Ag              2.85095000      2.62380000      5.69681000      47      2.78778800      2.78538900      2.41195600
Ag              0.78470000      5.87956000      5.55875000      47     -0.43812300     -0.79904400      2.47775200
Ag              5.83933000      2.89138000      0.05525000      47      3.40101800     -4.98371800     -2.02611900
Ag              4.99973000      0.82740000      2.38675000      47     -0.31083400     -0.12702000      0.38540300
Ag              3.94266000      6.97610000      3.64305000      47      1.05313600     -0.38107600      1.56052300
Ag              4.32405000      0.52280000      5.32219000      47      1.57223900      0.55517700      0.52087800
Ag              5.53820000      3.70651000      2.56147000      47      1.35096400      0.50166100      0.87221600
Ag              5.05378000      4.45809000      5.25869000      47     -1.71238900     -0.31551900     -1.16278300
32
dft_energy=-111.12371980 dft_virial="42.83346637       5.48572929     -15.16958394       5.48572929      27.28519948      -0.49274842     -15.16958394      -0.49274842      57.97690372" config_type=liq cutoff=-1.00000000 nneightol=1.20000000 pbc="T T T" Lattice="0.00000000       8.22342000       0.00000000       0.00000000       0.00000000       8.22342000       8.22342000       0.00000000       0.00000000" Properties=species:S:1:pos:R:3:Z:I:1:dft_force:R:3
Pd              7.35347000      1.46654000      0.86277000      46      1.87235800      0.65660200      2.80066900
Pd              2.76822000      0.99970000      8.06661000      46      2.39817800      0.79774400      0.14710600
Pd              0.14688000      4.07932000      2.46388000      46      0.38321300     -1.85173200     -0.14055600
Pd              7.54508000      0.43873000      3.21882000      46     -1.79207100      1.40570900      0.83753800
Pd              1.66612000      2.41527000      4.23427000      46     -0.13922600      1.24727700      0.31158400
Pd              1.01988000      7.03823000      3.18741000      46      1.17040700     -3.11698000     -0.78517000
Pd              5.98997000      7.63018000      8.04950000      46      1.05240400      1.15995000     -1.37557500
Pd              2.35513000      3.56765000      1.06837000      46      0.40106800     -1.05474400     -1.00462200
Pd              6.88758000      7.04083000      5.61412000      46      0.35534000      1.21870800      1.68797400
Pd              1.26699000      0.13180000      5.27578000      46      0.20274300      0.19146000      0.03844000
Pd              4.71455000      5.48074000      7.74909000      46     -1.16388000     -2.32721700     -1.61089000
Pd              8.13373000      5.95340000      0.96104000      46     -1.60605900      2.20310200      0.74957300
Pd              5.29403000      6.21493000      1.70767000      46      1.67731300     -0.93083500      2.70418100
Pd              6.73885000      5.71887000      3.64643000      46      2.01794100      0.02592700     -2.19708000
Pd              7.03607000      4.45681000      7.42236000      46      0.42615800      0.10145700     -0.67135300
Pd              3.39263000      6.94480000      6.17879000      46     -0.95875800      0.25024900      2.44078300
Ag              2.94221000      6.71263000      1.25392000      47     -1.77301100      0.75281600     -0.41994800
Ag              0.81857000      8.10839000      7.72224000      47     -4.44313300     -2.31502700      0.37299700
Ag              6.66964000      1.93044000      6.85618000      47      2.87954600     -1.14286700     -5.15680900
Ag              1.15919000      2.72524000      6.81047000      47     -3.98547600     -0.87504900      1.47462600
Ag              1.65385000      5.49547000      7.50633000      47      0.41764400     -1.05416800     -1.54089900
Ag              2.93688000      4.79190000      3.21500000      47      1.41383400      0.44124700      0.01626900
Ag              7.20547000      2.85748000      4.50510000      47     -0.17463100      0.23151300     -0.27415400
Ag              2.41188000      0.92338000      2.52805000      47      0.33206100     -0.43405800     -1.68661500
Ag              3.32849000      3.39978000      6.25981000      47      0.95369500      1.70722100      1.40828500
Ag              1.06697000      4.85833000      4.84778000      47     -1.54900000      1.37309500      2.13486200
Ag              4.89993000      2.09961000      0.04107000      47     -2.39036400      2.97739100      1.56875200
Ag              5.03612000      0.60937000      2.03415000      47      0.33146900      0.38313600      0.97497100
Ag              4.18790000      7.50163000      4.04783000      47      0.77050000     -0.47670000     -2.03148200
Ag              4.62974000      1.79081000      4.97567000      47      0.72497700     -1.46414500     -1.35244600
Ag              5.31038000      3.51616000      2.43276000      47      0.25531700     -0.32016500     -0.26206000
Ag              5.04066000      4.72718000      5.05228000      47     -0.06055700      0.23908300      0.84104800
32
dft_energy=-113.33057262 dft_virial="28.45288940       3.23432188      -0.13303416       3.23432188      51.06712440      -0.30421394      -0.13303416      -0.30421394      43.28107175" config_type=liq cutoff=-1.00000000 nneightol=1.20000000 pbc="T T T" Lattice="0.00000000       8.22342000       0.00000000       0.00000000       0.00000000       8.22342000       8.22342000       0.00000000       0.00000000" Properties=species:S:1:pos:R:3:Z:I:1:dft_force:R:3
Pd              0.11276000      1.88343000      1.20907000      46     -1.04371800     -1.82369900      0.69778000
Pd              2.78592000      0.91765000      8.10680000      46     -0.51185700      0.99214600     -0.15230800
Pd              0.37660000      3.88916000      2.53061000      46      0.16158100      1.78630800      0.15669100
Pd              7.17819000      0.05070000      3.33856000      46      0.51427300     -0.60279800     -0.49265100
Pd              1.78799000      2.77304000      4.35361000      46     -0.08391400     -0.96464000     -0.63735800
Pd              1.10564000      6.42793000      3.57044000      46      0.35594900      1.44648800     -0.66334100
Pd              5.79319000      7.44330000      7.91755000      46      2.23502700      1.20166100     -0.60544200
Pd              2.19834000      3.49488000      0.71638000      46      1.14763500     -0.33345900      0.96733400
Pd              7.14509000      6.76228000      5.54130000      46     -0.41131000      4.13718500      1.97602100
Pd              1.49853000      0.16645000      5.30143000      46      0.26303700      0.14209600     -0.03324100
Pd              4.82960000      5.12894000      7.59819000      46      0.30301000     -0.06481000      0.24250300
Pd              7.71530000      6.33649000      1.01374000      46      0.35017600     -1.71936100      1.49449000
Pd              5.02537000      6.40539000      1.66384000      46     -0.88713100     -0.58858100      2.75990200
Pd              6.95936000      5.64557000      3.32044000      46      0.25784900      0.70910600     -3.34329200
Pd              7.33818000      4.07789000      7.83622000      46     -1.00083000      0.32958300      0.74221600
Pd              3.75758000      7.24863000      6.80870000      46     -2.78251300     -0.13920200     -2.39418600
Ag              2.44114000      6.87264000      1.07623000      47      0.04905200     -0.05088900      1.85568400
Ag              0.16133000      8.05125000      7.70225000      47      2.94102700     -0.30975200     -0.40147800
Ag              6.66038000      1.15198000      6.62692000      47     -2.31881500      1.97269400     -1.22399800
Ag              0.75746000      2.31954000      6.97766000      47      1.33375700      0.40123600     -1.80998400
Ag              1.56242000      5.46181000      7.46516000      47     -1.76587800      1.99401500      0.13305000
Ag              3.30148000      5.17538000      3.51454000      47      0.51675400     -1.39918900     -0.25064700
Ag              7.37510000      2.30272000      4.45283000      47     -0.25683600      1.19877300     -0.59025000
Ag              2.60225000      1.00218000      2.59779000      47     -1.40021500     -0.56858300     -0.72331400
Ag              2.93290000      3.96950000      6.18010000      47      2.38048300     -1.03346300     -0.71035700
Ag              0.19582000      4.74361000      5.40235000      47      1.51682600     -2.68171400     -0.22925800
Ag              4.70000000      2.71370000      8.10250000      47      0.31717800     -1.52291300     -1.16799700
Ag              5.29949000      0.93328000      1.75217000      47      0.10999200     -0.24609200     -0.48043500
Ag              4.18122000      7.61890000      4.19416000      47      0.54968900     -0.22019400     -0.05715600
Ag              4.47360000      2.07578000      3.99819000      47      0.68368900      1.06965200      1.75198100
Ag              5.43130000      3.76296000      2.11326000      47      0.62168000      0.19112600      0.30491900
Ag              5.72054000      4.80623000      5.05100000      47     -4.14564500     -3.30272800      2.88412400
32
dft_energy=-112.04138053 dft_virial="29.60292265      -2.95926730       4.09246997      -2.95926730      42.07814486       9.56458971       4.09246997       9.56458971      53.89151794" config_type=liq cutoff=-1.00000000 nneightol=1.20000000 pbc="T T T" Lattice="0.00000000       8.22342000       0.00000000       0.00000000       0.00000000       8.22342000       8.22342000       0.00000000       0.00000000" Properties=species:S:1:pos:R:3:Z:I:1:dft_force:R:3
Pd              0.17488000      1.56573000      1.27004000      46     -0.95304400      1.03204400      0.04475700
Pd              2.64786000      1.11781000      0.00808000      46      1.63478500      0.38337700      0.30766100
Pd              1.00682000      4.52815000      2.25656000      46     -1.48693800     -0.23469200      0.72157800
Pd              7.37023000      7.98650000      3.11211000      46      1.15127700     -0.42202600      0.68705400
Pd              1.79031000      2.94444000      4.32573000      46     -0.66495800      0.28501200     -1.25860400
Pd              1.17646000      6.39222000      4.17233000      46     -0.13707700     -2.38704700     -0.79472600
Pd              6.21409000      8.02562000      8.03618000      46     -0.85190800     -0.39843400     -0.29368100
Pd              2.86236000      3.48402000      1.09037000      46      0.97675300      0.13104100     -0.64476900
Pd              7.36142000      7.10929000      5.77897000      46     -1.02625700     -0.33770100     -1.23985600
Pd              1.69933000      0.33666000      4.96561000      46     -1.48905100      1.91565800      0.12047300
Pd              4.79010000      5.43031000      7.98271000      46      0.13004400      0.86370400     -0.82079500
Pd              7.51363000      6.18791000      1.29062000      46     -0.69490500     -0.06916200     -0.76135500
Pd              4.52021000      6.49241000      2.19529000      46      1.04810100     -0.31455000     -2.66658000
Pd              6.65315000      5.42172000      3.65739000      46     -0.62506800      0.44139200     -0.17028900
Pd              7.50347000      3.64606000      7.98059000      46     -1.98124000     -0.08960100      2.18367200
Pd              3.49589000      7.81122000      6.32058000      46      0.77604500     -1.55808400      2.60634100
Ag              2.29649000      6.62210000      0.97201000      47     -0.17347300      0.20698600      0.14326000
Ag              0.61321000      8.11737000      7.60816000      47     -0.67431300      0.09544400     -0.46262000
Ag              5.60374000      1.08543000      5.63390000      47      4.19383500     -0.00513800      4.46411000
Ag              0.91878000      2.40232000      6.58340000      47      1.13992700     -2.34143700      1.81384200
Ag              0.69325000      5.62572000      7.32532000      47      1.38993300     -0.89675400     -0.78699600
Ag              3.58877000      4.65586000      3.73988000      47     -0.13362600      2.12998600     -0.28758700
Ag              7.29303000      2.31821000      3.71970000      47      0.09656300     -0.08313700     -1.01057900
Ag              2.34721000      1.12745000      2.59840000      47      0.93564300     -1.11260000     -0.35539400
Ag              2.99456000      4.14515000      6.39077000      47     -1.01942900      0.74440800      0.79972300
Ag              7.79529000      4.07536000      5.42297000      47      2.47757400      2.62009800     -0.45721300
Ag              4.87569000      2.47628000      7.67877000      47     -0.48863400     -1.69526800      3.38425700
Ag              5.49197000      1.06795000      1.92464000      47     -1.02414400      0.49762900     -0.47738700
Ag              4.86105000      7.64784000      4.22633000      47     -0.63139700     -2.08793000     -0.91645400
Ag              4.44533000      2.32403000      4.05000000      47     -2.34278100     -0.07000600     -3.34890100
Ag              5.57957000      3.92442000      1.71214000      47      0.39100300     -0.56455800      0.78618300
Ag              5.46510000      3.76257000      5.80574000      47      0.05676200      3.32134600     -1.30912600
32
dft_energy=-110.37092980 dft_virial="41.11879806       8.18969165       3.81167098       8.18969165      56.86231570       9.72624176       3.81167098       9.72624176      45.22318029" config_type=liq cutoff=-1.00000000 nneightol=1.20000000 pbc="T T T" Lattice="0.00000000       8.22342000       0.00000000       0.00000000       0.00000000       8.22342000       8.22342000       0.00000000       0.00000000" Properties=species:S:1:pos:R:3:Z:I:1:dft_force:R:3
Pd              8.18818000      1.38757000      0.84533000      46     -0.23934900      1.63646700      1.53045600
Pd              3.05742000      1.29511000      0.46852000      46     -1.00241400     -0.67531600      0.44914100
Pd              0.90600000      4.28730000      1.68013000      46     -2.26389000      0.27822700     -1.36235400
Pd              0.03385000      7.86860000      2.80173000      46     -2.51997500     -0.44286300     -0.76416600
Pd              1.58695000      3.23082000      3.68887000      46      2.39070300     -0.81422200      0.59829500
Pd              1.18940000      5.98658000      4.18575000      46     -1.92678300      1.39018900      0.03641300
Pd              6.28705000      8.20123000      8.01703000      46      0.20796400     -1.90887200     -0.70410000
Pd              3.24809000      4.09117000      0.98323000      46      1.76408900     -0.34755700      1.12798500
Pd              6.88832000      6.93132000      5.81684000      46      0.62334500     -0.06146500     -0.60272300
Pd              1.02670000      0.57973000      4.90437000      46     -0.00040500      0.05629600     -0.11019900
Pd              5.15957000      5.63702000      7.60315000      46     -0.80223800      0.24501700     -0.00527100
Pd              6.99582000      5.83340000      1.15995000      46      2.03001900      3.43300600      1.92458900
Pd              4.75541000      6.83191000      1.75530000      46     -2.68284800     -5.75557800     -0.59848400
Pd              6.30749000      5.26199000      3.86977000      46      1.30535800      3.54355500      1.70587500
Pd              6.97740000      3.80027000      8.15453000      46      4.46384200     -0.22290000     -2.44117600
Pd              3.47997000      7.43873000      6.79839000      46      0.14110600      0.29017700     -0.09257000
Ag              1.85064000      6.67667000      1.09361000      47      0.94052700     -2.03913400      0.04303200
Ag              0.93499000      7.94567000      7.43244000      47     -0.36637400      1.81777400     -1.54573700
Ag              6.39287000      1.35115000      5.65727000      47      0.43035100      0.26089700     -0.02606900
Ag              1.32440000      2.12993000      6.90862000      47      0.05261900      2.26381000     -0.24658000
Ag              0.33591000      5.67205000      7.32543000      47     -0.08921300     -2.00489400     -0.04020300
Ag              3.50997000      5.44747000      4.00594000      47      2.01312700     -1.29995200     -0.35335500
Ag              7.43331000      2.69413000      3.48855000      47     -1.22065900     -2.98187300     -0.98208400
Ag              2.59217000      8.21736000      2.79343000      47      1.11249700      1.52469600      1.79932000
Ag              2.57388000      4.47189000      6.84378000      47      0.97635400      0.53592000     -1.88302100
Ag              0.03994000      4.07392000      5.36138000      47     -1.62454000      0.00119300      2.99063600
Ag              5.29813000      2.28705000      8.14041000      47     -3.25761500     -1.28601000     -1.17474700
Ag              5.32246000      0.73213000      2.02617000      47      2.05269400      5.94225500      2.12328900
Ag              4.83660000      7.71762000      4.37844000      47     -0.22113000      0.35260800      0.38862900
Ag              3.80828000      2.26667000      3.74434000      47      2.02468900     -0.29049600      0.39867800
Ag              5.75172000      3.87783000      2.12882000      47     -3.79577900     -2.64960500     -2.17676600
Ag              5.31765000      3.85973000      5.75082000      47     -0.51607200     -0.79134900     -0.00673300
32
dft_energy=-110.60196565 dft_virial="54.01458009     -10.27897496      15.51314098     -10.27897496      49.80504229       4.74914391      15.51314098       4.74914391      32.28670844" config_type=liq cutoff=-1.00000000 nneightol=1.20000000 pbc="T T T" Lattice="0.00000000       8.22342000       0.00000000       0.00000000       0.00000000       8.22342000       8.22342000       0.00000000       0.00000000" Properties=species:S:1:pos:R:3:Z:I:1:dft_force:R:3
Pd              7.91752000      1.79201000      0.54263000      46      0.81906200     -2.35662800     -1.88553100
Pd              2.03071000      0.89720000      1.66584000      46     -0.33339100     -0.43447400     -0.99283900
Pd              0.66509000      4.12093000      1.04230000      46     -0.64381400     -2.06681900     -1.14029000
Pd              8.05233000      7.97024000      2.42768000      46     -0.64260800      0.11465500      0.01053000