32
dft_energy=-127.71957169 dft_virial="-1.20194590       0.54840100       0.36913725       0.54840100       2.20843126       1.16280693       0.36913725       1.16280693       2.19836271" config_type=ph cutoff=-1.00000000 nneightol=1.20000000 pbc="T T T" Lattice="0.00000000       0.00000000      -8.08849109       0.00000000       8.08849109       0.00000000       8.08165087      -4.04424554       4.04424554" Properties=species:S:1:pos:R:3:Z:I:1:dft_force:R:3
Pd              0.01315000      8.04979000     -0.05513000      46     -0.12879800      0.13893400      0.33405900
Pd              8.07089000     -4.01366000      0.04484000      46      0.03483800     -0.12413700     -0.23031900
Pd              0.00076000      4.03710000     -0.00445000      46     -0.01123300      0.08930400      0.06724400
Pd              8.07787000      0.01674000      0.01729000      46      0.05050000     -0.20459800     -0.19408500
Pd              4.05604000      6.02051000      1.95807000      46     -0.15540200      0.22782100      0.41926400
Pd              4.02767000     -1.98342000     -1.96700000      46      0.04707300     -0.23623700     -0.34673200
Pd              4.03855000      2.02474000     -6.05787000      46      0.00111600      0.00577700     -0.02523400
Pd              4.04006000      2.02927000     -2.01767000      46      0.01456700     -0.07980100     -0.05363000
Pd              2.00296000      0.05389000     -1.94832000      46      0.12928600     -0.68570600     -0.82043300
Pd              2.03897000     -0.05812000     -6.14504000      46     -0.02964100      0.66639500      0.71755600
Pd              2.03871000      3.98405000     -2.10043000      46     -0.14827000      0.72902500      0.86612800
Pd              2.00334000      4.10119000     -5.99310000      46      0.04937100     -0.61086500     -0.67589300
Pd              6.04532000     -1.97378000      0.06711000      46      0.19584000     -0.64361800     -0.76682400
Pd              6.07869000     -2.07602000     -4.11805000      46     -0.08829000      0.66575100      0.71507500
Pd              6.08031000      1.96017000     -0.08142000      46     -0.23366300      0.75227800      0.89918100
Pd              6.04294000      2.08231000     -3.96593000      46      0.12244200     -0.67106000     -0.75008700
Ag              0.00254000      2.00466000     -2.03896000      47     -0.04817800      0.20067000      0.18871800
Ag              0.00003000      2.02940000     -6.06235000      47      0.01539900     -0.09085900     -0.06381900
Ag              0.00968000      6.03363000     -2.06723000      47     -0.06479500      0.14089500      0.26899800
Ag              8.07001000      2.06345000     -1.96679000      47      0.17035100     -0.16433900     -0.34647400
Ag              4.04588000     -0.02723000     -0.02925000      47     -0.05067200      0.30695800      0.32554000
Ag              4.03828000      0.01746000     -4.02741000      47      0.01466900     -0.17250900     -0.15682400
Ag              4.04831000      4.02089000     -0.03377000      47     -0.03856800      0.01277000      0.14838400
Ag              4.03114000      4.07699000     -3.99914000      47      0.10727800     -0.05896200     -0.25273000
Ag              2.03631000      1.95668000     -0.08065000      47     -0.11886800      0.70987500      0.82015700
Ag              2.00406000      2.08823000     -3.96197000      47      0.13110400     -0.73363300     -0.87304600
Ag              2.00624000      6.11930000      0.06885000      47     -0.07961400     -0.79940500     -0.65828300
Ag              2.03311000      6.02028000     -4.10517000      47      0.08669100      0.72868400      0.58029900
Ag              6.07630000     -0.06317000      1.94508000      47     -0.20148800      0.67788200      0.77979900
Ag              6.04534000      0.06544000     -1.94147000      47      0.21803000     -0.74944700     -0.87668500
Ag              6.04594000      4.10273000      2.09720000      47      0.00490700     -0.83147600     -0.69813500
Ag              6.07541000      3.99131000     -2.09097000      47      0.00401400      0.80363400      0.65883000
32
dft_energy=-128.34740919 dft_virial="-2.59188097       1.02951993       0.42493834       1.02951993      -1.32318101      -1.33971442       0.42493834      -1.33971442      -1.15104544" config_type=ph cutoff=-1.00000000 nneightol=1.20000000 pbc="T T T" Lattice="0.00000000       0.00000000      -8.08849109       0.00000000       8.08849109       0.00000000       8.08165087      -4.04424554       4.04424554" Properties=species:S:1:pos:R:3:Z:I:1:dft_force:R:3
Pd              0.00279000      8.05836000     -0.03164000      46     -0.04542700      0.14159600      0.15579700
Pd              8.07615000     -3.98349000      0.06123000      46      0.02513600     -0.27022800     -0.26138200
Pd              0.00156000      4.02610000     -0.01649000      46      0.01683300      0.27399700      0.22376700
Pd              0.00279000      4.01412000     -4.07588000      46     -0.00404300      0.09172500      0.11339900
Pd              4.04436000      6.02788000      1.98228000      46     -0.01753100      0.16635500      0.19109600
Pd              4.03515000     -1.95927000     -1.95907000      46      0.01066300     -0.24538900     -0.24074100
Pd              4.04151000      2.01370000      2.01542000      46      0.00947200      0.23333300      0.18356200
Pd              4.04436000      1.98364000     -2.06197000      46     -0.00461000      0.13273000      0.13432900
Pd              2.01723000      0.03460000     -1.98609000      46      0.05161300      0.05770300     -0.01717600
Pd              2.01931000      0.01311000     -6.05496000      46     -0.02675100     -0.29872800     -0.21396800
Pd              2.02602000      3.98221000     -2.08450000      46      0.00932200      0.27054900      0.23296800
Pd              2.01723000      4.07885000     -6.03033000      46     -0.03510800     -0.01974700     -0.01255100
Pd              6.05883000     -1.99626000      0.02743000      46      0.04480300      0.10944800      0.02052800
Pd              6.05927000     -1.99947000     -4.02322000      46     -0.02179000     -0.33663900     -0.26959400
Pd              6.06661000      1.96290000     -0.05982000      46      0.02250600      0.27119200      0.21740200
Pd              6.05883000      2.04799000     -4.01681000      46     -0.03796000      0.02985300      0.03496000
Ag              8.07810000     -1.98779000      2.04672000      47     -0.09537500     -0.14599500     -0.02954800
Ag              0.00701000      1.96240000     -6.12304000      47     -0.05643600      0.31002100      0.33642700
Ag              8.07966000      2.03329000      2.04401000      47      0.02366200     -0.22605700     -0.24535400
Ag              8.07810000      2.05646000     -1.99752000      47      0.10809200     -0.05487400     -0.12364200
Ag              4.03632000      0.04175000      0.03299000      47     -0.07002100     -0.17468600     -0.05899100
Ag              4.04806000     -0.06073000     -4.10365000      47     -0.07077600      0.28715400      0.32208000
Ag              4.03996000      4.04593000      0.01275000      47     -0.00867000     -0.18907000     -0.21817100
Ag              4.03632000      4.08600000     -4.01126000      47      0.13641500     -0.08243000     -0.15785600
Ag              2.01326000      2.08255000      0.05828000      47      0.13525500     -0.24074800     -0.33909400
Ag              2.02447000      1.98380000     -4.07332000      47      0.06446500      0.16971200      0.05114400
Ag              2.02647000      6.01923000     -0.05335000      47     -0.11703600      0.16920500      0.32412200
Ag              2.01326000      6.12680000     -3.98597000      47     -0.06748800     -0.25013700     -0.18794800
Ag              6.05439000      0.05871000      2.07700000      47      0.12790500     -0.25505500     -0.35045100
Ag              6.06430000     -0.03048000     -2.04249000      47      0.08067100      0.13029400      0.02060600
Ag              6.06785000      3.99169000      1.96489000      47     -0.13051700      0.22362500      0.36286500
Ag              6.05439000      4.10296000     -1.96725000      47     -0.05727200     -0.27871100     -0.19858400
32
dft_energy=-128.14862041 dft_virial="-2.65499173       0.79882111       0.07305391       0.79882111       0.51427155      -1.62902269       0.07305391      -1.62902269      -0.57695991" config_type=ph cutoff=-1.00000000 nneightol=1.20000000 pbc="T T T" Lattice="0.00000000       0.00000000      -8.08849109       0.00000000       8.08849109       0.00000000       8.08165087      -4.04424554       4.04424554" Properties=species:S:1:pos:R:3:Z:I:1:dft_force:R:3
Pd              0.00782000     -0.00197000     -0.01377000      46     -0.29541800      0.00090400      0.02337100
Pd              0.00232000      0.00161000     -4.04219000      46      0.25924900     -0.02188300      0.01483700
Pd              0.01777000      4.04197000     -0.02514000      46     -0.31519700      0.00371600      0.04667000
Pd              8.07383000      0.00197000      0.01377000      46      0.27381500     -0.01772200     -0.02732700
Pd              4.10547000     -2.02451000      1.94711000      46     -0.16023200      0.00523600      0.26626400
Pd              3.97734000      6.06898000     -1.94771000      46      0.18115900     -0.02468200     -0.22339100
Pd              4.10504000      2.02002000      1.94835000      46     -0.15127700     -0.00137000      0.26068000
Pd              3.97618000      2.02451000     -1.94711000      46      0.17763300     -0.01118100     -0.22471100
Pd              2.02883000      0.00138000     -2.02717000      46     -0.04347600      0.00378000      0.00821900
Pd              2.02213000     -0.00176000     -6.07310000      46     -0.02624500      0.00145400      0.05238100
Pd              2.03876000      4.04521000     -2.03882000      46     -0.06493400      0.01187000      0.03239300
Pd              2.01199000      4.04287000     -6.06133000      46     -0.01965800      0.01201300      0.00992200
Pd              6.12590000     -2.02441000     -0.07474000      46     -0.64213700      0.02833200      0.69601000
Pd              5.99764000     -2.02014000     -3.97148000      46      0.31888000     -0.00387700     -0.44330700
Pd              6.12538000      2.01959000     -0.07488000      46     -0.63444600      0.01647300      0.68434200
Pd              5.99657000      2.02441000     -3.96950000      46      0.32282500     -0.00170800     -0.44712600
Ag              0.07668000      2.02330000     -2.10065000      47     -0.35371500     -0.01423700      0.38967400
Ag              8.00120000     -2.02358000     -1.94332000      47      0.76300400      0.01556400     -0.68056800
Ag              0.07102000      6.06724000     -2.09845000      47     -0.32959500     -0.00925500      0.37967400
Ag              8.00497000      2.02094000     -1.94359000      47      0.74138200      0.01974100     -0.67444300
Ag              4.02306000     -0.00169000     -0.00449000      47      0.07864400      0.00446000     -0.00522500
Ag              4.04579000      0.00144000     -4.02748000      47      0.03874400      0.00007900     -0.08240400
Ag              4.01069000      4.04235000      0.00789000      47      0.10305200      0.00177600     -0.05232700
Ag              4.05859000      4.04593000     -4.03975000      47     -0.01041800     -0.00068000     -0.05858500
Ag              1.93808000      2.02029000      0.07520000      47      0.23306100      0.00435800     -0.24206500
Ag              2.10218000      2.02374000     -4.12227000      47     -0.22135000     -0.00682900      0.22166700
Ag              1.93953000      6.06436000      0.07052000      47      0.22544200      0.00782600     -0.22291000
Ag              2.10275000      6.06820000     -4.11944000      47     -0.22718000     -0.00860500      0.21391400
Ag              6.05116000     -0.00154000      2.01020000      47      0.23705000      0.00290600      0.10823400
Ag              6.08398000      0.00178000     -2.02255000      47     -0.34405000     -0.00989000     -0.05858500
Ag              6.06407000      4.04297000      1.99814000      47      0.19749000      0.00606000      0.13407100
Ag              6.07132000      4.04579000     -2.01020000      47     -0.31210300     -0.01463100     -0.09934800
32
dft_energy=-127.98129755 dft_virial="-1.78015654       0.51786534       0.67964855       0.51786534       0.70623401      -2.77296636       0.67964855      -2.77296636       0.74639271" config_type=ph cutoff=-1.00000000 nneightol=1.20000000 pbc="T T T" Lattice="0.00000000       0.00000000      -8.08849109       0.00000000       8.08849109       0.00000000       8.08165087      -4.04424554       4.04424554" Properties=species:S:1:pos:R:3:Z:I:1:dft_force:R:3
Pd              0.04344000      8.06193000     -8.05786000      46     -0.10825700      0.11784900     -0.19172300
Pd              0.02971000      0.04981000     -4.09128000      46     -0.05463200     -0.49023900      0.48598000
Pd              8.06553000     -0.05812000     -3.98763000      46      0.21828700      0.21266700     -0.20807400
Pd              0.04344000      4.01768000     -4.01362000      46     -0.48748300      0.35178500     -0.35268000
Pd              4.08011000      6.03158000     -6.02791000      46     -0.08015500      0.21941200     -0.26022300
Pd              4.07631000     -1.97837000     -2.06256000      46     -0.10114600     -0.45309700      0.40051500
Pd              4.01763000      1.96748000     -6.01390000      46      0.26647000      0.18462800     -0.21356800
Pd              4.08011000      1.98734000     -1.98366000      46     -0.46054800      0.42722600     -0.45332100
Pd              2.06919000     -0.00606000     -2.01150000      46     -0.46802100      0.14861400     -0.07245300
Pd              2.02136000     -0.06065000     -6.00563000      46      0.14524800      0.02609600     -0.20899800
Pd              2.03473000      4.10300000     -2.07954000      46     -0.01961400     -0.58711100      0.73285400
Pd              2.06919000      4.03819000     -6.05574000      46     -0.35584300     -0.03110800     -0.22673300
Pd              6.11048000     -2.01865000      0.00114000      46     -0.47022800      0.12420900      0.01245800
Pd              6.06988000     -2.08149000     -3.98407000      46      0.10291100      0.03408400     -0.16975800
Pd              6.06801000      2.08257000     -0.05982000      46      0.01531700     -0.60996500      0.77218900
Pd              6.11048000      2.02559000     -4.04311000      46     -0.35222100     -0.08411800     -0.15208400
Ag              8.03478000     -1.99514000      1.99015000      47      0.50388700     -0.26833100      0.49839500
Ag              8.04960000     -2.07374000     -1.97392000      47      0.15540600      0.37866300     -0.41718200
Ag              0.01739000      6.12643000     -2.08033000      47     -0.16775500     -0.36336800      0.40190200
Ag              8.03478000      2.04910000     -2.05410000      47      0.49100200     -0.49345700      0.29019800
Ag              3.99845000      0.03549000     -0.04001000      47      0.44405400     -0.35232500      0.61960000
Ag              4.00254000     -0.04543000     -4.00289000      47      0.19202100      0.32312900     -0.33383700
Ag              4.06585000      4.10078000     -0.05387000      47     -0.21039700     -0.33802800      0.39045900
Ag              3.99845000      4.07974000     -4.08425000      47      0.49555100     -0.54358900      0.38513000
Ag              2.00497000      1.96142000      0.05906000      47      0.00069200      0.48827200     -0.25154500
Ag              1.96778000      2.02792000     -4.05565000      47      0.53236900     -0.06403500      0.24535400
Ag              2.06821000      6.04158000      0.02988000      47     -0.26471700      0.03306600     -0.13897000
Ag              2.00497000      6.00567000     -3.98519000      47     -0.04796100      0.55527100     -0.62637900
Ag              6.05394000     -0.06238000      2.08372000      47     -0.05496000      0.49146300     -0.26382700
Ag              6.00812000     -0.00403000     -2.02375000      47      0.54105300      0.01447800      0.11256800
Ag              6.11208000      4.02876000      2.04302000      47     -0.29005200     -0.00253700     -0.12074300
Ag              6.05394000      3.98187000     -1.96053000      47     -0.11027800      0.55039700     -0.68550700
32
dft_energy=-128.16262299 dft_virial="-1.74584559       1.79933332       0.68828817       1.79933332       0.10825918      -1.68104188       0.68828817      -1.68104188      -0.91704984" config_type=ph cutoff=-1.00000000 nneightol=1.20000000 pbc="T T T" Lattice="0.00000000       0.00000000      -8.08849109       0.00000000       8.08849109       0.00000000       8.08165087      -4.04424554       4.04424554" Properties=species:S:1:pos:R:3:Z:I:1:dft_force:R:3
Pd              8.05869000      3.95818000     -4.03544000      46      0.29538600      0.78215500     -0.15490600
Pd              8.07587000      4.02477000      0.00143000      46     -0.02268800      0.07138000      0.03316900
Pd              8.06356000     -0.06670000     -4.03771000      46      0.10956600      0.57021400     -0.13016800
Pd              0.00522000      4.06624000     -4.04713000      46     -0.18259900     -0.21295600      0.07070400
Pd              4.05590000     -1.96345000      2.01556000      46     -0.20707300     -0.39815700      0.07466500
Pd              4.06379000     -1.93605000     -2.03093000      46     -0.15894900     -0.34241000      0.00491500
Pd              4.06247000      2.10468000      2.01330000      46     -0.17066200     -0.51266400      0.02100200
Pd              4.05892000      2.08883000     -2.02866000      46     -0.01978800     -0.23635400      0.03560200
Pd              2.00397000     -0.06031000     -2.01629000      46      0.12405600      0.20675300      0.05485600
Pd              1.99793000     -0.08549000     -6.05730000      46      0.31098200      0.56969700     -0.08832600
Pd              1.99811000      3.96090000     -2.01366000      46      0.06764100      0.31931500     -0.03346100
Pd              2.00356000      3.97902000     -6.05916000      46      0.16704600      0.38733600     -0.02201000
Pd              6.05369000     -2.05286000      0.00377000      46      0.17266400      0.34740100     -0.04455000
Pd              6.07768000     -1.96181000     -4.05008000      46     -0.19510800     -0.52586400      0.08498200
Pd              6.06463000      2.03258000     -0.00048000      46      0.07178400      0.05639600     -0.06437600
Pd              6.08354000      2.10547000     -4.05271000      46     -0.19856900     -0.68520600      0.10730200
Ag              8.06998000     -2.05859000      2.02904000      47      0.02674900     -0.07619800     -0.05212100
Ag              0.01453000      2.08827000     -6.07216000      47     -0.12215700     -0.58641400      0.15508000
Ag              8.08135000      2.03177000      2.02374000      47     -0.06451000     -0.38959500     -0.00777700
Ag              0.02225000      6.15919000     -6.07639000      47     -0.32464500     -0.86456100      0.17535700
Ag              4.06595000      0.09926000     -0.01207000      47     -0.19963200     -0.45232500      0.08167900
Ag              4.05250000      0.03647000     -4.05116000      47     -0.08099200      0.00217300      0.00358300
Ag              4.06335000      4.12831000     -0.01149000      47     -0.19619600     -0.39528300     -0.02838600
Ag              4.04112000      4.03460000     -4.04586000      47     -0.07976700      0.26454800      0.05290300
Ag              2.01109000      1.99540000      0.00585000      47      0.07050000     -0.07728900     -0.00156600
Ag              1.99539000      1.92438000     -4.03207000      47      0.12490600      0.37833200     -0.07874700
Ag              2.00151000      5.99894000      0.01006000      47      0.16779500      0.16718400     -0.12374900
Ag              1.99708000      5.97029000     -4.03357000      47      0.29665400      0.38800200      0.01222900
Ag              6.04468000     -0.07348000      2.02898000      47      0.21380700      0.67977100     -0.16088800
Ag              6.07056000      0.02672000     -2.02797000      47      0.05415400      0.19333300      0.05054600
Ag              6.05506000      4.00939000      2.02367000      47      0.06226900      0.45432000     -0.04790300
Ag              6.08014000      4.11167000     -2.03218000      47     -0.11262600     -0.08303200      0.02035800
32
dft_energy=-128.36794888 dft_virial="-3.23914912       1.18322784       0.85475419       1.18322784      -0.89300874      -1.15879733       0.85475419      -1.15879733      -1.05297361" config_type=ph cutoff=-1.00000000 nneightol=1.20000000 pbc="T T T" Lattice="0.00000000       0.00000000      -8.08849109       0.00000000       8.08849109       0.00000000       8.08165087      -4.04424554       4.04424554" Properties=species:S:1:pos:R:3:Z:I:1:dft_force:R:3
Pd              8.07345000      3.99116000      4.00610000      46      0.06440800      0.25716600      0.33741400
Pd              8.08021000      4.00616000     -0.01890000      46     -0.05173400      0.01646200     -0.00117600
Pd              8.08040000      0.02381000     -4.03653000      46      0.05913400     -0.24232600     -0.19202700
Pd              8.07351000     -0.03372000     -0.02982000      46      0.01032800      0.10999900      0.11984100
Pd              4.03232000      6.01639000      1.98472000      46      0.06261600      0.25594900      0.32868400
Pd              4.03808000      6.02246000     -2.04598000      46     -0.06041700      0.07419800      0.03606200
Pd              4.04092000      2.05346000     -6.05290000      46      0.04860500     -0.26315000     -0.21030400
Pd              4.03321000      1.99568000     -2.04784000      46      0.02382400      0.07353000      0.10279000
Pd              2.01215000     -0.05265000     -2.06021000      46      0.10142300      0.36008300      0.16848700
Pd              2.01457000     -0.00866000     -6.08117000      46     -0.02122800      0.06215300     -0.02235700
Pd              2.02402000      4.03558000     -2.01892000      46     -0.09196100     -0.04403000     -0.02654000
Pd              2.01510000      3.99159000     -6.09882000      46     -0.07434400      0.23657800      0.16343900
Pd              6.05344000     -2.07680000     -0.03805000      46      0.08737800      0.41166800      0.18165700
Pd              6.05448000     -2.03923000     -4.06437000      46     -0.00091700      0.12731400      0.02485000
Pd              6.06603000      2.02212000      0.00911000      46     -0.09146100     -0.07814900     -0.05801200
Pd              6.05705000      1.97279000     -4.07315000      46     -0.09241400      0.22539100      0.16440600
Ag              8.05383000     -2.07185000      1.98762000      47      0.29276100      0.37846400      0.11542600
Ag              8.05333000     -2.05809000     -2.05715000      47      0.16252700      0.10859800     -0.01717000
Ag              0.02175000      6.08899000     -1.99526000      47     -0.13470800     -0.38860300     -0.26963400
Ag              8.06949000      1.99072000     -2.03727000      47     -0.01647600      0.06053400      0.11096700
Ag              4.01610000     -0.04677000     -0.03068000      47      0.28615000      0.36053000      0.09833300
Ag              4.01022000     -0.04139000     -4.08211000      47      0.18440900      0.13672000      0.02276600
Ag              4.06617000      4.07391000      0.03133000      47     -0.18450000     -0.43066100     -0.29213400
Ag              4.03361000      4.01971000     -4.05328000      47     -0.04691000      0.01318600      0.07120200
Ag              2.00656000      2.01368000     -0.01706000      47      0.06512100     -0.08212500     -0.10850200
Ag              1.98751000      1.97262000     -4.08499000      47      0.09977900      0.20553800      0.20516000
Ag              2.05209000      6.11832000      0.03925000      47     -0.24877100     -0.49864800     -0.27194200
Ag              2.02677000      6.08967000     -4.03628000      47     -0.13595300     -0.47198600     -0.26266100
Ag              6.05223000     -0.00032000      2.01107000      47      0.03079900     -0.12502700     -0.14059700
Ag              6.02893000     -0.04643000     -2.06211000      47      0.06202000      0.17159000      0.18619500
Ag              6.09393000      4.09561000      2.06262000      47     -0.25802900     -0.50898300     -0.27654200
Ag              6.07257000      4.07453000     -2.00800000      47     -0.13145600     -0.51196300     -0.28808400
32
dft_energy=-128.28247440 dft_virial="-2.73989954       1.14732295       0.91154200       1.14732295      -0.52907242      -2.65059272       0.91154200      -2.65059272      -0.75852711" config_type=ph cutoff=-1.00000000 nneightol=1.20000000 pbc="T T T" Lattice="0.00000000       0.00000000      -8.08849109       0.00000000       8.08849109       0.00000000       8.08165087      -4.04424554       4.04424554" Properties=species:S:1:pos:R:3:Z:I:1:dft_force:R:3
Pd              0.02924000      0.01389000     -0.03340000      46     -0.21126800     -0.23524100      0.40959300
Pd              0.01604000      0.03050000     -4.09569000      46     -0.20534300     -0.23695600      0.60217300
Pd              0.02464000      4.04429000     -0.01127000      46     -0.17048900     -0.10866900      0.16927800
Pd              0.02548000      4.07145000     -4.09520000      46     -0.28502100     -0.29546000      0.58209900
Pd              4.06922000     -2.01265000      1.99550000      46     -0.19694300     -0.20655900      0.32917000
Pd              4.06053000     -1.99199000     -2.07470000      46     -0.23629800     -0.24576100      0.59817800
Pd              4.06265000      2.01740000      2.01903000      46     -0.14243200     -0.07776700      0.08745900
Pd              4.06829000      2.04683000     -2.07037000      46     -0.29736500     -0.28281000      0.54022300
Pd              2.02611000     -0.02182000     -1.99313000      46     -0.03559000      0.16020900     -0.20183100
Pd              1.99730000     -0.02890000     -6.01403000      46      0.21489900      0.16573300     -0.37130300
Pd              2.03858000      4.03448000     -2.01625000      46     -0.18844600      0.10395700     -0.03853000
Pd              2.00806000      4.01406000     -6.01707000      46      0.20075500      0.22317300     -0.38335100
Pd              6.07137000     -2.04034000      0.02176000      46     -0.06164000      0.14801300     -0.12829200
Pd              6.04125000     -2.05219000     -3.99163000      46      0.19881400      0.16152900     -0.34188600
Pd              6.08280000      2.01700000     -0.00238000      46     -0.21259500      0.06947700      0.05430800
Pd              6.05321000      1.99300000     -3.99845000      46      0.16532400      0.20680400     -0.31753800
Ag              8.05675000     -2.04381000      2.06764000      47      0.09159000      0.18350600     -0.38063900
Ag              0.00093000      1.99269000     -6.01949000      47     -0.15007700      0.24624500     -0.43211900
Ag              8.05323000      2.01277000      2.04932000      47      0.12878800      0.03087800     -0.21306300
Ag              8.06957000      1.99166000     -1.96801000      47      0.00138500      0.29114300     -0.49363100
Ag              4.01408000     -0.01799000      0.04035000      47      0.11461100      0.15672600     -0.30603100
Ag              4.03729000     -0.03053000     -3.99369000      47     -0.12375400      0.26028100     -0.43150800
Ag              4.01261000      4.03962000      0.01953000      47      0.13263700      0.01233900     -0.12198800
Ag              4.02487000      4.01494000     -3.99033000      47      0.02581400      0.28207600     -0.45551100
Ag              1.99320000      2.02274000      0.01067000      47      0.25738400     -0.05033800      0.04435600
Ag              2.01543000      2.04991000     -4.08675000      47      0.05939300     -0.32247900      0.49001000
Ag              1.99242000      6.05290000      0.03363000      47      0.13995800     -0.00467500     -0.07358500
Ag              2.00326000      6.08502000     -4.06685000      47      0.15134100     -0.17546600      0.29937400
Ag              6.03307000     -0.00422000      2.04097000      47      0.23745000     -0.03301600     -0.02368500
Ag              6.05193000      0.02534000     -2.05884000      47      0.10374300     -0.29566800      0.42438900
Ag              6.03437000      4.02660000      2.06199000      47      0.10883700      0.01381000     -0.13583600
Ag              6.04075000      4.05881000     -2.03674000      47      0.18453800     -0.14503200      0.21971600
32
dft_energy=-128.07282764 dft_virial="-1.61359811      -0.03695432       0.74304312      -0.03695432       0.21305658      -1.59016753       0.74304312      -1.59016753       0.13999937" config_type=ph cutoff=-1.00000000 nneightol=1.20000000 pbc="T T T" Lattice="0.00000000       0.00000000      -8.08849109       0.00000000       8.08849109       0.00000000       8.08165087      -4.04424554       4.04424554" Properties=species:S:1:pos:R:3:Z:I:1:dft_force:R:3
Pd              0.08532000     -0.02391000     -0.00499000      46     -0.40209000      0.03791900      0.11826100
Pd              7.98233000      4.07466000      0.00330000      46      0.46731400     -0.08418700     -0.22205200
Pd              8.01760000      0.02355000     -4.04597000      46      0.57895000     -0.24957000      0.09888800
Pd              0.02246000      4.03255000     -4.04029000      46     -0.15773300     -0.02315900     -0.15458900