32
dft_energy=-128.41037577 dft_virial="-3.41232091       0.68309054       0.55455565       0.68309054      -1.44994705      -1.58620413       0.55455565      -1.58620413      -0.84656009" config_type=ph cutoff=-1.00000000 nneightol=1.20000000 pbc="T T T" Lattice="0.00000000       0.00000000      -8.08849109       0.00000000       8.08849109       0.00000000       8.08165087      -4.04424554       4.04424554" Properties=species:S:1:pos:R:3:Z:I:1:dft_force:R:3
Pd              8.02745000      4.02327000     -4.03408000      46      0.28119600      0.04439200     -0.17641500
Pd              8.02241000      4.03137000      0.02797000      46      0.39620700      0.01322800     -0.19292800
Pd              8.01993000     -0.01743000     -4.02184000      46      0.27936200      0.06689500     -0.26777700
Pd              8.03676000     -0.00385000      0.03110000      46      0.26045700      0.01300500     -0.18809300
Pd              3.98986000      6.05931000     -6.03556000      46      0.26411800     -0.03163000     -0.31093300
Pd              4.02943000     -2.01302000     -1.99730000      46      0.10960200     -0.08581700     -0.11605700
Pd              4.01124000      2.02488000     -6.03697000      46      0.09296100     -0.00466800     -0.25434100
Pd              4.05823000      2.03891000     -2.00852000      46     -0.09600700     -0.09330500     -0.05685100
Pd              2.06248000      0.02077000     -2.02247000      46     -0.22733300     -0.11634600     -0.01705900
Pd              2.01820000      0.01185000     -6.04462000      46     -0.09940100     -0.13162200     -0.22494300
Pd              2.03737000      4.06093000     -2.00831000      46     -0.13051600     -0.13386100     -0.08758500
Pd              1.99042000      4.04685000     -6.03689000      46      0.02963200     -0.04930100     -0.25486300
Pd              6.04006000     -2.01627000      0.02756000      46      0.07997700     -0.09652500     -0.14771700
Pd              6.00525000     -2.03235000     -4.01456000      46      0.19334300     -0.02300100     -0.23768100
Pd              6.01604000      2.01811000      0.03110000      46      0.20461700     -0.01138100     -0.16429100
Pd              5.99953000      2.00460000     -4.02201000      46      0.25161400      0.08833700     -0.22623900
Ag              0.04744000      2.01917000     -2.02966000      47     -0.29601600     -0.00888000      0.11143700
Ag              0.02908000      2.01286000     -6.08434000      47     -0.24786400     -0.01411100      0.20851200
Ag              0.03941000      6.05913000     -2.03696000      47     -0.22009600      0.01684600      0.14359000
Ag              0.00865000      6.05581000     -6.08571000      47     -0.08051400      0.05824900      0.21154800
Ag              4.05674000     -0.01038000     -0.01936000      47     -0.16634000      0.07225400      0.19817300
Ag              4.02016000     -0.00873000     -4.05893000      47      0.14301900      0.03426100      0.14406300
Ag              4.03451000      4.03410000     -0.01788000      47     -0.01060700      0.06759900      0.22916300
Ag              4.00281000      4.03916000     -4.05156000      47      0.24688800     -0.01354200      0.11792200
Ag              1.98262000      2.01697000     -0.00745000      47      0.23990700      0.00902600      0.07861300
Ag              2.01445000      2.01196000     -4.06219000      47     -0.08361300      0.05517000      0.21278600
Ag              2.00007000      6.05759000     -0.01477000      47      0.04702500      0.07604400      0.16483500
Ag              2.03666000      6.05600000     -4.06359000      47     -0.28375800      0.11038000      0.21548700
Ag              6.07024000     -0.01056000      2.00277000      47     -0.16654700      0.00743400      0.27045300
Ag              6.10085000     -0.00718000     -2.03686000      47     -0.31650900     -0.00844100      0.21452100
Ag              6.09060000      4.03502000      2.00420000      47     -0.33079400      0.06036300      0.26803500
Ag              6.10873000      4.04137000     -2.02952000      47     -0.36401000      0.02894700      0.13463500
32
dft_energy=-127.59598544 dft_virial="0.34832364      -1.08935041      -0.18531940      -1.08935041       2.33002938      -0.77524202      -0.18531940      -0.77524202       1.99860216" config_type=ph cutoff=-1.00000000 nneightol=1.20000000 pbc="T T T" Lattice="0.00000000       0.00000000      -8.08849109       0.00000000       8.08849109       0.00000000       8.08165087      -4.04424554       4.04424554" Properties=species:S:1:pos:R:3:Z:I:1:dft_force:R:3
Pd              8.04819000     -4.00271000     -3.99273000      46      0.52465800     -0.25179000     -0.33221800
Pd              8.07353000     -4.02759000      0.07448000      46      0.16660600     -0.16071500     -0.74586600
Pd              0.03341000      4.00612000     -0.01987000      46     -0.51147700      0.47921700      0.07517800
Pd              0.02240000      4.01210000     -4.11963000      46     -0.28768400      0.37390100      0.80105900
Pd              4.00741000     -1.98400000     -6.04650000      46      0.45957000     -0.24756100     -0.08109800
Pd              4.01842000     -1.98997000     -1.94674000      46      0.33347200     -0.36201900     -0.85148500
Pd              4.06691000      1.99571000     -6.05026000      46     -0.38776800      0.37606900     -0.13088800
Pd              4.07263000      1.98149000     -2.08198000      46     -0.41970800      0.52205600      0.63254300
Pd              2.01211000      0.00292000     -2.07890000      46      0.12604000     -0.20535100      0.53693600
Pd              2.04638000     -0.03565000     -6.13860000      46     -0.16995700      0.31312500      0.31111400
Pd              2.04296000      4.02280000     -1.99521000      46     -0.20724500      0.19790900     -0.34885600
Pd              2.00751000      4.06628000     -5.98979000      46      0.04299200     -0.28368800     -0.58378900
Pd              6.03869000     -2.00068000     -0.02692000      46      0.27837000     -0.43002500      0.37833800
Pd              6.07414000     -2.04415000     -4.12083000      46     -0.15259600      0.20875600      0.40099100
Pd              6.09311000      1.98683000     -0.00881000      46     -0.23486800      0.41269600     -0.01302200
Pd              6.06422000      2.02573000     -3.98001000      46     -0.02217900     -0.09692600     -0.49398600
Ag              0.06028000      1.98512000     -2.01534000      47     -0.55766700      0.42966600     -0.09467500
Ag              8.04316000     -1.98548000     -1.97706000      47      0.04387800     -0.29023400     -0.22619600
Ag              7.99438000      2.08232000      2.03747000      47      0.84970300     -0.72583900      0.09563800
Ag              8.07633000      2.01680000     -2.05530000      47      0.39581200     -0.09882300      0.14473300
Ag              4.12809000     -0.06020000     -0.01535000      47     -0.90130100      0.72332700      0.19963400
Ag              4.04614000      0.00532000     -4.01107000      47     -0.14579400     -0.16853000     -0.18855900
Ag              3.94559000      4.11452000      0.03414000      47      1.04503400     -0.94240100      0.02234600
Ag              3.99285000      4.07141000     -4.05831000      47      0.64668100     -0.24215500      0.20020600
Ag              1.92697000      2.09242000      0.03860000      47      0.85215600     -0.62373400      0.03683100
Ag              1.99503000      2.04961000     -4.00190000      47      0.26131900     -0.28922300     -0.43103800
Ag              2.11235000      6.00148000     -0.02175000      47     -1.16427800      0.72607100      0.11172800
Ag              2.08477000      6.01242000     -4.09185000      47     -0.65355700      0.59423900      0.58716700
Ag              5.96930000      0.06489000      2.04387000      47      0.82758000     -0.48523600      0.02206200
Ag              5.99689000      0.05395000     -1.97452000      47      0.64428300     -0.50069900     -0.58802700
Ag              6.13164000      3.99891000      2.02197000      47     -0.88998400      0.45584200     -0.02432900
Ag              6.15054000      3.97559000     -2.06461000      47     -0.79209300      0.59207700      0.57752500
32
dft_energy=-128.25035078 dft_virial="-2.58521480       1.40008282       0.72400165       1.40008282      -0.33057250      -2.08954581       0.72400165      -2.08954581      -0.71578775" config_type=ph cutoff=-1.00000000 nneightol=1.20000000 pbc="T T T" Lattice="0.00000000       0.00000000      -8.08849109       0.00000000       8.08849109       0.00000000       8.08165087      -4.04424554       4.04424554" Properties=species:S:1:pos:R:3:Z:I:1:dft_force:R:3
Pd              8.06681000      3.95752000     -4.02371000      46      0.06533000      0.48464400     -0.16729700
Pd              8.07388000      4.03094000      0.00240000      46     -0.04473200     -0.01830300      0.01566000
Pd              8.06378000     -0.08962000     -4.02337000      46      0.01409400      0.47057600     -0.13848400
Pd              0.00046000      4.07321000     -4.05172000      46     -0.05219000     -0.28742100      0.04004900
Pd              4.02296000      5.97675000     -6.04550000      46      0.05432600      0.51401800     -0.16161100
Pd              4.04128000     -1.99316000     -2.02960000      46     -0.10955800     -0.18359900      0.02467400
Pd              4.02383000      1.94914000     -6.04971000      46      0.02115100      0.38646600     -0.13883300
Pd              4.04941000      2.08704000     -2.03784000      46     -0.10249400     -0.41974600      0.08008200
Pd              2.02483000      0.04724000     -2.03381000      46      0.03147700     -0.33633400      0.12412900
Pd              2.00246000     -0.08408000     -6.04695000      46      0.19823400      0.46347800     -0.05214500
Pd              2.01641000      4.05108000     -2.02445000      46     -0.02288800     -0.08929800      0.02163300
Pd              2.00368000      3.95366000     -6.04509000      46      0.15113700      0.48684000     -0.07549100
Pd              6.05724000     -2.01529000     -0.00232000      46      0.06231000     -0.15144800      0.07743300
Pd              6.04451000     -2.11271000     -4.02297000      46      0.19254800      0.47667700     -0.08058300
Pd              6.04970000      1.98707000      0.00754000      46      0.00133200      0.11465600     -0.06669700
Pd              6.04937000      1.94478000     -4.02575000      46      0.15820600      0.37754900     -0.04648400
Ag              8.06761000     -2.07449000      2.03536000      47     -0.01167600      0.25090400     -0.02820900
Ag              0.01631000      2.05372000     -6.07334000      47     -0.16923700     -0.61685600      0.14161300
Ag              8.07562000      1.98623000      2.03166000      47      0.06929900      0.17161500      0.06724900
Ag              0.01981000      6.11632000     -6.07816000      47     -0.21941600     -0.72218800      0.12802000
Ag              4.03480000     -0.03590000      0.00954000      47     -0.05801000      0.19560800      0.01364800
Ag              4.06064000      0.04995000     -4.05604000      47     -0.17650900     -0.63256700      0.12815900
Ag              4.04413000      4.03264000      0.00377000      47      0.00209600      0.07601500      0.06614800
Ag              4.05983000      4.10166000     -4.05829000      47     -0.22587900     -0.70143300      0.15129700
Ag              2.03888000      2.06353000     -0.00951000      47     -0.03762300     -0.50690300      0.01994600
Ag              2.00986000      1.97627000     -4.03243000      47     -0.01201700      0.29171100     -0.04595000
Ag              2.03335000      6.08516000     -0.00372000      47     -0.06735900     -0.37635700     -0.05448700
Ag              2.00328000      6.00978000     -4.03020000      47      0.10761300      0.37191100     -0.00244000
Ag              6.07417000      0.01879000      2.01840000      47     -0.05924500     -0.47219000      0.05204800
Ag              6.04410000     -0.05659000     -2.00808000      47      0.08898300      0.34529700     -0.06332600
Ag              6.06582000      4.03633000      2.02500000      47     -0.02664100     -0.30346500     -0.06521400
Ag              6.04126000      3.98925000     -2.00891000      47      0.17733600      0.34014300      0.03546400
32
dft_energy=-127.95124361 dft_virial="-1.69113023       1.24057006       1.06566572       1.24057006       1.13605647       0.27665576       1.06566572       0.27665576       1.01250141" config_type=ph cutoff=-1.00000000 nneightol=1.20000000 pbc="T T T" Lattice="0.00000000       0.00000000      -8.08849109       0.00000000       8.08849109       0.00000000       8.08165087      -4.04424554       4.04424554" Properties=species:S:1:pos:R:3:Z:I:1:dft_force:R:3
Pd              8.07441000      4.01654000      4.02066000      46      0.00308700      0.11314800      0.23808500
Pd              0.02021000      0.07387000     -3.97949000      46     -0.18359000     -0.74098800     -0.56233100
Pd              8.06773000     -0.05015000      3.99986000      46      0.22103000      0.20422200     -0.00980100
Pd              8.06879000     -0.04810000     -0.04154000      46      0.03725100      0.40515600      0.34567600
Pd              4.03065000      6.02799000      1.98915000      46      0.02938600      0.20996400      0.28160400
Pd              4.06014000     -1.95172000     -1.96029000      46     -0.21620800     -0.76659900     -0.60394400
Pd              4.02946000      1.98145000      1.98597000      46      0.18105300      0.11285500     -0.10026000
Pd              4.02560000      1.96548000     -2.07121000      46      0.11754400      0.48175700      0.42843500
Pd              2.02698000      0.02522000     -2.00072000      46     -0.19755200     -0.57328200     -0.40940900
Pd              2.03870000      0.06651000     -6.00787000      46     -0.18450500     -0.40797400     -0.20138700
Pd              2.00001000      3.96924000     -2.08763000      46      0.16392700      0.52269600      0.40268700
Pd              2.02061000      4.04619000     -6.06536000      46      0.05335700     -0.25712100     -0.46401300
Pd              6.06466000     -2.00837000      0.01135000      46     -0.13513100     -0.47481000     -0.31751300
Pd              6.08079000     -1.95079000     -3.98163000      46     -0.21588100     -0.47623900     -0.24276200
Pd              6.04156000      1.94959000     -0.06324000      46      0.10900600      0.47907100      0.34593000
Pd              6.05821000      2.01221000     -4.05360000      46      0.12561500     -0.16375900     -0.37247200
Ag              8.07182000     -2.06237000      1.98194000      47     -0.03437300      0.32621900      0.40242400
Ag              0.01731000      2.10057000     -5.99608000      47     -0.08514500     -0.72390900     -0.63004900
Ag              8.07189000      1.97530000      1.98263000      47      0.02580100      0.11039200      0.03984000
Ag              8.06736000      1.96127000     -2.08037000      47      0.12968400      0.37260400      0.24109200
Ag              4.02861000     -0.05118000     -0.04983000      47      0.01647100      0.40667700      0.50212700
Ag              4.05680000      0.07305000     -3.97944000      47     -0.14191900     -0.72920600     -0.64406900
Ag              4.03368000      4.00880000     -0.02881000      47      0.00807400     -0.00813100     -0.03948600
Ag              4.02481000      3.97522000     -4.10947000      47      0.19237100      0.43459000      0.32386800
Ag              2.00168000      1.93872000     -0.07616000      47      0.02919100      0.50308800      0.54455400
Ag              2.02419000      2.03494000     -4.02866000      47      0.02592800     -0.12051300     -0.20549800
Ag              2.02816000      6.10444000      0.03126000      47     -0.21127100     -0.34989400     -0.23657200
Ag              2.00233000      5.98712000     -4.11783000      47      0.14106900      0.55839000      0.43824200
Ag              6.04260000     -0.08234000      1.94632000      47     -0.03789000      0.44078600      0.47157300
Ag              6.06209000     -0.00023000     -2.01840000      47      0.08556100      0.02378800     -0.08397300
Ag              6.07156000      4.09346000      2.06388000      47     -0.15709100     -0.39257800     -0.25888300
Ag              6.04416000      3.97004000     -2.09167000      47      0.10515000      0.47959600      0.37628400
32
dft_energy=-127.57662888 dft_virial="0.48461042       2.17679998      -1.21580955       2.17679998       2.37713474      -2.42027341      -1.21580955      -2.42027341       2.64912749" config_type=ph cutoff=-1.00000000 nneightol=1.20000000 pbc="T T T" Lattice="0.00000000       0.00000000      -8.08849109       0.00000000       8.08849109       0.00000000       8.08165087      -4.04424554       4.04424554" Properties=species:S:1:pos:R:3:Z:I:1:dft_force:R:3
Pd              0.13043000      0.07297000     -0.09083000      46     -0.61137100     -0.53591500      0.66937800
Pd              7.99743000      3.99048000      0.05803000      46      0.79384100      0.67141800     -0.61905500
Pd              7.96385000     -0.06820000     -3.96242000      46      1.26735100      0.88136400     -0.85957600
Pd              0.06409000      4.08872000     -4.08808000      46     -0.51577300     -0.44110500      0.50830800
Pd              4.08322000     -1.98804000      1.99356000      46     -0.46631200     -0.28706300      0.34678200
Pd              4.06755000     -2.02111000     -2.04203000      46     -0.07308800      0.05210300      0.02847600
Pd              4.02118000      1.99927000     -6.05378000      46      0.24500500      0.20804300     -0.11103800
Pd              3.99162000      2.00907000     -1.98651000      46      0.22514000      0.04969100     -0.14592200
Pd              2.06364000      0.00982000     -2.05356000      46     -0.22746000     -0.05142900      0.11345900
Pd              2.04628000      0.02595000     -6.08332000      46     -0.23116700     -0.21110100      0.14233700
Pd              1.99990000      4.04650000     -2.00656000      46      0.04151300     -0.06227000     -0.05076400
Pd              1.97203000      4.00726000     -6.03359000      46      0.48566300      0.29812300     -0.31484100
Pd              5.99153000     -2.06922000      0.04779000      46      0.46006300      0.42299100     -0.54443000
Pd              6.18275000     -1.95246000     -4.12871000      46     -1.25575400     -0.87552300      0.86899600
Pd              6.15056000      2.07819000     -0.06164000      46     -0.74403000     -0.69453800      0.53110200
Pd              5.92794000      1.94817000     -3.95135000      46      0.64404400      0.52035800     -0.63873600
Ag              7.99571000     -2.04243000      2.05778000      47      1.02806500      0.53433200     -0.89643100
Ag              0.03246000      2.03142000     -6.07687000      47     -0.29469800     -0.61851400      0.35841200
Ag              0.06968000      6.08340000     -2.05001000      47     -0.53998800     -0.36304500      0.54119900
Ag              8.06924000      2.01708000     -2.02081000      47      0.26988900      0.52438800     -0.38699800
Ag              4.04876000     -0.00067000     -0.00791000      47      0.16800400      0.01709800     -0.14517100
Ag              3.97497000     -0.01214000     -4.01071000      47      0.34174300     -0.18477400     -0.19981800
Ag              4.01273000      4.04051000      0.01694000      47     -0.05936700      0.01300200      0.19865400
Ag              4.12335000      4.06020000     -4.08494000      47     -0.41065400      0.14596300      0.03620300
Ag              2.08147000      2.03318000     -0.03146000      47     -0.38440400      0.13353400      0.19407600
Ag              2.01797000      2.02398000     -4.03881000      47     -0.15222500      0.00874500      0.15240900
Ag              1.97801000      6.05948000      0.02328000      47      0.21831600     -0.13913900     -0.03561600
Ag              2.00253000      6.06016000     -4.04044000      47      0.36396900      0.06248300     -0.24897100
Ag              6.02348000     -0.01042000      2.03507000      47      0.28780400      0.59625400     -0.36128000
Ag              6.15123000      0.02111000     -2.05974000      47     -0.96923300     -0.45375500      0.90257300
Ag              6.11795000      4.05861000      2.00035000      47     -0.58715500     -0.57687000      0.48155700
Ag              5.95774000      4.02050000     -1.97789000      47      0.68227200      0.35515000     -0.51527500
32
dft_energy=-128.21798219 dft_virial="-2.48826500       0.11035474       1.43168110       0.11035474      -0.23676107      -2.01511247       1.43168110      -2.01511247      -0.40099624" config_type=ph cutoff=-1.00000000 nneightol=1.20000000 pbc="T T T" Lattice="0.00000000       0.00000000      -8.08849109       0.00000000       8.08849109       0.00000000       8.08165087      -4.04424554       4.04424554" Properties=species:S:1:pos:R:3:Z:I:1:dft_force:R:3
Pd              0.06295000     -0.02217000      0.02304000      46     -0.38651800      0.08785500     -0.22873700
Pd              8.02661000      4.06983000     -0.02675000      46      0.25579800     -0.23586100      0.24835000
Pd              8.04631000      0.01865000      4.02470000      46      0.23613000     -0.24443000      0.24900200
Pd              8.01870000      0.02217000     -0.02304000      46      0.37252100     -0.09644300      0.18563700
Pd              4.05298000     -2.02196000      2.02184000      46     -0.04243400     -0.01345700      0.00935500
Pd              3.96300000      6.09747000     -2.05454000      46      0.48920200     -0.23629500      0.25962200
Pd              3.96681000      2.05327000     -6.09887000      46      0.40913900     -0.24198800      0.21667900
Pd              4.02867000      2.02196000     -2.02184000      46      0.09737700     -0.00154700      0.01280800
Pd              2.03727000     -0.01170000     -2.00982000      46     -0.09217500      0.07066000      0.02437700
Pd              1.94274000      0.03073000     -6.09840000      46      0.62122000     -0.34579300      0.30305900
Pd              1.94801000      4.07132000     -2.05030000      46      0.42930700     -0.30565700      0.14899900
Pd              2.00356000      4.05594000     -6.07867000      46     -0.15772500     -0.00821900      0.06352100
Pd              6.01943000     -2.00970000     -0.01285000      46      0.25662000     -0.25418300      0.08399400
Pd              6.00294000     -1.99546000     -4.07211000      46      0.36857800     -0.25977000      0.24950400
Pd              5.98986000      2.05267000     -0.03189000      46      0.40522500     -0.14264800      0.27985400
Pd              6.10304000      2.00970000     -4.03140000      46     -0.43568200      0.13631800     -0.14356500
Ag              0.04187000      2.00826000     -2.00638000      47     -0.29413400     -0.00422800     -0.18579500
Ag              0.04588000      1.99676000     -6.04162000      47     -0.37503400      0.31940900     -0.13311900
Ag              0.05898000      6.03666000     -1.99245000      47     -0.37342200      0.35502000     -0.28106900
Ag              8.03978000      2.03599000     -2.03786000      47      0.28264000     -0.04419500      0.22262500
Ag              4.10797000     -0.02952000      0.03061000      47     -0.46994400      0.27225400     -0.12794400
Ag              4.03816000     -0.00517000     -4.04079000      47      0.08505100      0.18146500     -0.15833600
Ag              4.05916000      4.02984000      0.01304000      47     -0.17427800      0.19071900     -0.16112800
Ag              3.97368000      4.07377000     -4.07486000      47      0.46716100     -0.27852800      0.15328400
Ag              1.99317000      2.02857000     -0.00834000      47      0.21506500      0.09500700     -0.10635200
Ag              2.08579000      1.99103000     -4.01271000      47     -0.48446400      0.15248700     -0.12896500
Ag              2.07727000      6.03729000      0.02893000      47     -0.21677700      0.10947900     -0.03233500
Ag              2.04765000      6.05992000     -4.03591000      47     -0.51818700      0.27657200     -0.37457000
Ag              6.08573000     -0.01698000      2.03787000      47     -0.14528200      0.26753500     -0.13385300
Ag              6.11965000     -0.02312000     -1.99738000      47     -0.45562300     -0.00208000     -0.29818300
Ag              6.12731000      4.01581000      2.05179000      47     -0.27867500      0.05376200     -0.01778000
Ag              6.03675000      4.06123000     -2.03787000      47     -0.09067900      0.14678000     -0.19893800
32
dft_energy=-128.50006362 dft_virial="-3.63947214       0.75537883       1.24569509       0.75537883      -1.69040752      -1.77600174       1.24569509      -1.77600174      -1.47334133" config_type=ph cutoff=-1.00000000 nneightol=1.20000000 pbc="T T T" Lattice="0.00000000       0.00000000      -8.08849109       0.00000000       8.08849109       0.00000000       8.08165087      -4.04424554       4.04424554" Properties=species:S:1:pos:R:3:Z:I:1:dft_force:R:3
Pd              8.04763000      4.05226000      3.99975000      46      0.38492600     -0.08654300      0.49140200
Pd              8.07907000      4.04494000     -0.00569000      46      0.11472000     -0.07924200      0.14379500
Pd              8.06780000      0.00333000      4.02430000      46      0.22712600     -0.03239900      0.35488700
Pd              0.02425000      4.03863000     -4.01501000      46      0.05266600      0.01912000     -0.00085800
Pd              4.03824000      6.06706000      2.01643000      46      0.18015600     -0.02682400      0.26255300
Pd              4.07251000     -2.02950000     -1.98279000      46     -0.05137000      0.01317600      0.01585600
Pd              4.06507000      2.01651000     -6.03713000      46     -0.08447800     -0.05503700     -0.05437200
Pd              4.07669000      2.01369000     -1.97562000      46     -0.04551900      0.00291100     -0.05440900
Pd              2.03385000     -0.00323000     -2.00269000      46      0.00929200     -0.01382700      0.04802500
Pd              2.05719000     -0.00863000     -6.01904000      46     -0.12748700      0.08460800     -0.14489900
Pd              2.05426000      4.03627000     -1.97782000      46     -0.02658100      0.03087300     -0.05934400
Pd              2.04901000      4.03760000     -6.03127000      46     -0.10548100     -0.05586100     -0.08020700
Pd              6.09802000     -2.03075000      0.04733000      46     -0.15460500      0.02987300     -0.18600500
Pd              6.08120000     -2.02673000     -4.02070000      46     -0.06085500      0.04422000      0.01219300
Pd              6.08984000      2.01548000      0.03510000      46     -0.01460900      0.01272700     -0.03748600
Pd              6.05336000      2.02406000     -4.05667000      46      0.14015300     -0.05429200      0.30583400
Ag              8.07248000     -2.01986000      2.01137000      47      0.25820700     -0.03153600      0.14366800
Ag              0.02793000      2.01504000     -6.02872000      47      0.00356400      0.01582700     -0.16473500
Ag              0.01899000      6.06153000     -1.99597000      47      0.10702100      0.00696200     -0.08826000
Ag              0.03709000      6.05701000     -6.01765000      47     -0.12943200      0.06024800     -0.26882400
Ag              4.06876000     -0.00708000      0.03765000      47     -0.02751700      0.05502200     -0.05171700
Ag              4.07536000     -0.00869000     -3.99932000      47     -0.05947800     -0.03133900     -0.06405400
Ag              4.07792000      4.03489000      0.04871000      47     -0.02951700     -0.02360200     -0.09335800
Ag              4.05552000      4.04059000     -4.02616000      47     -0.02440400      0.04562100      0.02291900
Ag              2.02915000      2.01997000      0.01017000      47     -0.04171400     -0.05718400      0.10492800
Ag              2.05657000      2.01301000     -3.99699000      47     -0.04555900      0.01629800     -0.06901100
Ag              2.05214000      6.05839000      0.04103000      47     -0.19516500      0.05861300     -0.11614000
Ag              2.05208000      6.05835000     -4.00188000      47     -0.02772400      0.02515100     -0.01346800
Ag              6.09740000     -0.00911000      2.06938000      47     -0.23314000      0.02336100     -0.20839400
Ag              6.08534000     -0.00612000     -1.98939000      47      0.06699000      0.02520000     -0.02550500
Ag              6.09290000      4.03623000      2.06449000      47     -0.21371700      0.05155200     -0.23712500
Ag              6.05826000      4.04494000     -2.02468000      47      0.15353100     -0.07367500      0.11211000
32
dft_energy=-128.26107523 dft_virial="-2.55140216       1.43450267       0.77477341       1.43450267      -0.56225474      -2.13749270       0.77477341      -2.13749270      -0.88322730" config_type=ph cutoff=-1.00000000 nneightol=1.20000000 pbc="T T T" Lattice="0.00000000       0.00000000      -8.08849109       0.00000000       8.08849109       0.00000000       8.08165087      -4.04424554       4.04424554" Properties=species:S:1:pos:R:3:Z:I:1:dft_force:R:3
Pd              8.05434000      3.98539000     -4.02016000      46      0.23193600      0.56909100     -0.20115300
Pd              8.05920000      4.02885000      0.05281000      46      0.05362600     -0.07863600     -0.08351100
Pd              8.05920000     -0.01540000     -3.99144000      46     -0.03783400     -0.10678500     -0.15437700
Pd              0.04769000      4.11708000     -4.11628000      46     -0.21434500     -0.39072200      0.29269600