32
dft_energy=-127.54480483 dft_virial="1.40724729       1.61162796       0.66339235       1.61162796       3.02523451      -1.57636989       0.66339235      -1.57636989       1.36331990" config_type=ph cutoff=-1.00000000 nneightol=1.20000000 pbc="T T T" Lattice="0.00000000       0.00000000      -8.08849109       0.00000000       8.08849109       0.00000000       8.08165087      -4.04424554       4.04424554" Properties=species:S:1:pos:R:3:Z:I:1:dft_force:R:3
Pd              0.00176000      0.02325000      0.00063000      46      0.03223700     -0.30266600      0.02734300
Pd              8.07068000      3.93328000      0.00255000      46      0.24229400      0.79492800      0.12909700
Pd              8.08123000      0.00205000     -4.04296000      46      0.05624100     -0.18057700      0.03671000
Pd              8.07214000     -0.09738000      0.00198000      46      0.20796500      0.71183000      0.07529800
Pd              4.04041000     -2.02007000     -6.06509000      46      0.00765000     -0.11965700     -0.00500900
Pd              4.03132000      5.96899000     -2.02014000      46      0.24617700      0.71320500      0.13093300
Pd              4.03824000      2.00292000     -6.06446000      46      0.03095000     -0.00059700     -0.00556300
Pd              4.03301000      1.94072000     -2.02076000      46      0.19758900      0.60610200      0.08005600
Pd              2.03411000      0.13289000     -2.02638000      46     -0.09282200     -0.97502900     -0.00613200
Pd              2.00918000     -0.11334000     -6.06371000      46      0.12606800      0.95570200      0.10794000
Pd              2.03360000      4.17121000     -2.02640000      46     -0.11115300     -0.96706900      0.05857600
Pd              2.00805000      3.92063000     -6.06322000      46      0.13497700      1.00020800      0.03929700
Pd              6.07443000     -1.89516000     -0.00428000      46     -0.11101800     -0.98003200      0.01834700
Pd              6.04887000     -2.14574000     -4.04109000      46      0.15213700      1.07956000      0.13749600
Pd              6.07359000      2.14004000     -0.00420000      46     -0.12740100     -0.94655000      0.07647300
Pd              6.04804000      1.89128000     -4.04068000      46      0.15850300      1.10070800      0.07377300
Ag              8.06992000     -2.12986000      2.02531000      47      0.09072000      0.92361600     -0.07827800
Ag              0.00441000      2.06535000     -6.06664000      47     -0.15519200     -0.66696800     -0.06296400
Ag              8.06920000      1.90842000      2.02571000      47      0.07264400      0.93203900     -0.00881900
Ag              0.00626000      6.12613000     -6.06730000      47     -0.12156700     -0.77482900     -0.14381000
Ag              4.02838000     -0.11371000      0.00359000      47      0.08178800      0.91170300     -0.06449700
Ag              4.04709000      0.05977000     -4.04518000      47     -0.19384500     -0.77864500     -0.04688100
Ag              4.02797000      3.92737000      0.00390000      47      0.06254600      0.89904800      0.01212500
Ag              4.04878000      4.11908000     -4.04581000      47     -0.16892600     -0.87810300     -0.12874900
Ag              2.02801000      2.08807000     -0.00335000      47     -0.17252000     -0.60466600     -0.09309100
Ag              2.02246000      2.04416000     -4.04372000      47      0.00671700     -0.14630600      0.04090900
Ag              2.02956000      6.14670000     -0.00372000      47     -0.22770000     -0.69417200     -0.10797400
Ag              2.02044000      6.07010000     -4.04307000      47     -0.00266600     -0.02511200     -0.00665700
Ag              6.07038000      0.08033000      2.01840000      47     -0.18562200     -0.75768100     -0.12458000
Ag              6.06126000      0.00373000     -2.02094000      47     -0.00302900     -0.05909800      0.01138000
Ag              6.07170000      4.13698000      2.01813000      47     -0.22606100     -0.82945000     -0.14874000
Ag              6.05924000      4.02957000     -2.02032000      47     -0.00768200      0.05855800     -0.02400600
32
dft_energy=-127.23974871 dft_virial="0.71057362       0.79017819       0.55108396       0.79017819       4.23984283      -1.95092587       0.55108396      -1.95092587       4.57270888" config_type=ph cutoff=-1.00000000 nneightol=1.20000000 pbc="T T T" Lattice="0.00000000       0.00000000      -8.08849109       0.00000000       8.08849109       0.00000000       8.08165087      -4.04424554       4.04424554" Properties=species:S:1:pos:R:3:Z:I:1:dft_force:R:3
Pd              8.07903000      3.99502000     -3.97559000      46     -0.03315900      0.47062400     -0.84971500
Pd              8.07899000      3.98485000      0.06006000      46     -0.07220600      0.55717800     -0.78871100
Pd              8.07899000     -0.05939000     -3.98418000      46     -0.02913900      0.53993500     -0.77904700
Pd              8.07902000     -0.06810000      0.04999000      46     -0.06870600      0.60915600     -0.70212300
Pd              4.04081000      6.00606000      1.96248000      46     -0.01500600      0.64114300      0.84553400
Pd              4.04123000      6.01609000     -2.09043000      46     -0.02446600      0.56809000      0.89434300
Pd              4.04123000      1.97184000      1.95381000      46      0.00031400      0.58413500      0.93234400
Pd              4.04163000      1.98311000     -2.09741000      46     -0.00813400      0.50584300      0.98334200
Pd              2.02215000     -0.00635000     -2.10656000      46     -0.00456900      0.16974900      1.06378100
Pd              2.02181000     -0.01948000     -6.14883000      46      0.04004200      0.22926100      1.04889700
Pd              2.02181000      4.02477000     -2.10458000      46     -0.04028400      0.26966600      1.02352000
Pd              2.02144000      4.01212000     -6.14482000      46      0.00974200      0.31923400      0.99266500
Pd              6.05898000     -2.10450000      0.01913000      46      0.04985200      0.77520900     -0.48484300
Pd              6.05879000     -2.10044000     -4.01246000      46      0.06599400      0.76941500     -0.56709300
Pd              6.05879000      1.94381000      0.03179000      46      0.09671300      0.75152400     -0.53478400
Pd              6.05866000      1.94980000     -4.00057000      46      0.11753800      0.73231600     -0.62157500
Ag              0.00397000      2.08390000     -2.08459000      47     -0.13247400     -0.50160700      0.86695100
Ag              0.00392000      2.09283000     -6.11848000      47     -0.12493300     -0.59009800      0.80591200
Ag              0.00392000      6.13708000     -2.07424000      47     -0.08617800     -0.56457500      0.81568600
Ag              0.00378000      6.14427000     -6.10685000      47     -0.07900500     -0.63184300      0.74041600
Ag              4.04023000      0.05152000      0.07027000      47      0.02441500     -0.67100400     -0.91046300
Ag              4.03962000      0.03982000     -3.96669000      47      0.02313200     -0.55054900     -0.95994200
Ag              4.03962000      4.08407000      0.07756000      47     -0.01074900     -0.57784100     -0.97399400
Ag              4.03904000      4.07139000     -3.96131000      47     -0.01003400     -0.45321100     -1.02462600
Ag              2.01782000      2.02813000      0.08723000      47      0.00683700     -0.13511100     -1.11150000
Ag              2.01832000      2.04171000     -3.95915000      47      0.02415100     -0.24338300     -1.11158300
Ag              2.01832000      6.08596000      0.08510000      47      0.01557800     -0.23729300     -1.03981200
Ag              2.01887000      6.09905000     -3.96337000      47      0.03653200     -0.33248300     -1.02272900
Ag              6.06461000      0.08527000      2.00181000      47      0.06972600     -0.78290800      0.52510400
Ag              6.06490000      0.08115000     -2.05550000      47      0.04944000     -0.75013100      0.61740600
Ag              6.06490000      4.12540000      1.98875000      47      0.06339100     -0.75867800      0.61475300
Ag              6.06509000      4.11929000     -2.06774000      47      0.04564400     -0.71176200      0.71188700
32
dft_energy=-127.64070087 dft_virial="0.30409924      -0.02211715       0.15132525      -0.02211715       1.94378450      -1.51988899       0.15132525      -1.51988899       1.93169960" config_type=ph cutoff=-1.00000000 nneightol=1.20000000 pbc="T T T" Lattice="0.00000000       0.00000000      -8.08849109       0.00000000       8.08849109       0.00000000       8.08165087      -4.04424554       4.04424554" Properties=species:S:1:pos:R:3:Z:I:1:dft_force:R:3
Pd              7.97202000      4.06989000     -4.03357000      46      0.64298700     -0.15658900     -0.35761300
Pd              0.13653000     -0.02533000     -4.06062000      46     -0.73186100     -0.01765800      0.16061000
Pd              8.05520000     -0.00677000     -4.03561000      46      0.09142000     -0.00062000     -0.01803700
Pd              8.04324000      0.01754000     -0.00026000      46      0.42955300     -0.22619500     -0.04267600
Pd              3.91916000      6.09256000     -6.05346000      46      0.73005200     -0.20529100     -0.39606800
Pd              4.17981000     -2.04608000     -2.03965000      46     -0.73917200      0.00208700      0.23121700
Pd              4.03605000      2.01147000     -6.06040000      46     -0.00822200      0.02039000      0.01183300
Pd              3.98198000      2.04249000     -2.01949000      46      0.59637400     -0.30772900     -0.14338800
Pd              1.95258000      0.02152000     -2.01816000      46      0.36082700     -0.23305500      0.01096200
Pd              2.02574000     -0.01237000     -6.06169000      46     -0.02649000      0.13386200      0.01571700
Pd              2.15938000      4.02112000     -2.04004000      46     -1.04933800      0.41951000      0.14702300
Pd              1.89418000      4.07046000     -6.05253000      46      0.73939700     -0.16768900     -0.11561500
Pd              6.01323000     -2.00322000      0.00108000      46      0.27146300     -0.19172900      0.03694200
Pd              6.04476000     -2.03072000     -4.03682000      46      0.15044700      0.02602000     -0.07825600
Pd              6.19932000      1.99735000     -0.01696000      46     -0.99999700      0.37977300      0.05684600
Pd              5.94568000      2.04810000     -4.03250000      46      0.63257800     -0.10760400     -0.02636800
Ag              8.01003000     -2.01685000      2.04399000      47      0.49331700     -0.20086600     -0.05118300
Ag              0.11203000      2.00650000     -6.08893000      47     -0.74343500      0.09766600     -0.04919200
Ag              8.01953000      2.04118000      2.01823000      47      0.48704900      0.05976500      0.21190200
Ag              0.00449000      6.05649000     -6.05266000      47     -0.01072100     -0.00340400     -0.21945500
Ag              3.95347000      0.00897000      0.02266000      47      0.67927900     -0.28574700     -0.13803500
Ag              4.16120000     -0.01841000     -4.06592000      47     -0.81070200      0.17739200     -0.00589700
Ag              3.99700000      4.06062000     -0.00738000      47      0.40001600      0.07333700      0.20946200
Ag              4.02523000      4.03801000     -4.02784000      47      0.12219300     -0.10263600     -0.25913700
Ag              2.14365000      2.00257000     -0.02108000      47     -1.06849800      0.25509700      0.18729200
Ag              1.92649000      2.03274000     -4.02141000      47      0.68181500      0.05359100     -0.01692700
Ag              1.93330000      6.08861000      0.00161000      47      0.22516900     -0.08461500     -0.32178300
Ag              2.14067000      6.04174000     -4.05605000      47     -0.72187200      0.20450700      0.56507500
Ag              6.17748000     -0.01697000      1.99991000      47     -0.98094800      0.14399000      0.10242200
Ag              5.98210000      0.00700000     -1.99982000      47      0.57309200      0.11940500      0.04171100
Ag              5.96051000      4.06787000      2.02729000      47      0.30637200     -0.01966800     -0.27746600
Ag              6.18692000      4.02002000     -2.03685000      47     -0.72214200      0.14470200      0.52808000
32
dft_energy=-128.35546881 dft_virial="-3.47581449       0.81304116       0.82677940       0.81304116      -0.80411444      -1.31539612       0.82677940      -1.31539612      -0.67986636" config_type=ph cutoff=-1.00000000 nneightol=1.20000000 pbc="T T T" Lattice="0.00000000       0.00000000      -8.08849109       0.00000000       8.08849109       0.00000000       8.08165087      -4.04424554       4.04424554" Properties=species:S:1:pos:R:3:Z:I:1:dft_force:R:3
Pd              8.06861000     -4.00697000     -4.03578000      46      0.11041600     -0.15182500     -0.04269300
Pd              0.01177000      8.04097000     -4.05504000      46     -0.13298100      0.25025500      0.14276000
Pd              8.06680000      0.00216000     -4.04375000      46      0.13216600      0.05245900      0.02128600
Pd              0.01460000      4.02993000     -4.04750000      46     -0.12744000      0.01782700      0.01400700
Pd              4.03176000      6.00464000      2.00810000      46      0.13888200      0.40152700      0.18311600
Pd              4.05162000     -1.96859000     -2.00996000      46     -0.05522300     -0.33641000     -0.19723900
Pd              4.03810000      1.94555000      2.00473000      46      0.06964500      0.43843500      0.07949400
Pd              4.04581000      2.09551000     -2.00545000      46      0.03699700     -0.42992200     -0.10701100
Pd              2.02852000     -0.06527000     -2.03695000      46     -0.10096700      0.37265100      0.18018500
Pd              2.01046000      0.05781000     -6.05323000      46      0.03074600     -0.37625900     -0.20586500
Pd              2.02199000      3.96678000     -2.03972000      46     -0.08576400      0.43456000      0.08381900
Pd              2.01655000      4.11946000     -6.04928000      46     -0.03846000     -0.45902500     -0.11404400
Pd              6.05021000     -2.07434000     -0.01186000      46      0.17405100      0.28423500      0.13977000
Pd              6.07057000     -1.96151000     -4.03047000      46     -0.15051600     -0.28684300     -0.06723700
Pd              6.04689000      2.00184000     -0.00461000      46      0.07866600      0.04025100      0.02839900
Pd              6.07480000      2.05392000     -4.03702000      46     -0.06239600     -0.10346600     -0.01698200
Ag              8.07625000     -2.09026000      2.01116000      47      0.00885200      0.15665300      0.01358400
Ag              0.00771000      2.08563000     -6.05615000      47     -0.03085000     -0.18527200     -0.04690600
Ag              0.00208000      5.99465000     -2.03366000      47     -0.00338300      0.22573100      0.13534600
Ag              0.00045000      6.13866000     -6.05474000      47     -0.04347800     -0.31184500     -0.19263900
Ag              4.05498000     -0.03461000     -0.00557000      47     -0.13426600      0.15052100      0.05813600
Ag              4.02805000      0.04412000     -4.03715000      47      0.14055900     -0.22575000     -0.00985300
Ag              4.05694000      4.04224000     -0.00032000      47     -0.16302400     -0.05003200      0.04429400
Ag              4.02498000      4.05754000     -4.04211000      47      0.13886700     -0.04554300     -0.03699600
Ag              2.03598000      2.04095000      0.00303000      47     -0.08868400     -0.11539200     -0.00026800
Ag              2.00570000      1.99260000     -4.04899000      47      0.07304500      0.18294600      0.04327000
Ag              2.03619000      6.05144000     -0.00240000      47     -0.20412700      0.07464600     -0.04213000
Ag              2.00431000      6.07004000     -4.04365000      47      0.22156600     -0.02957700      0.03450100
Ag              6.06782000     -0.06603000      2.01150000      47     -0.05113800      0.19387000     -0.00659200
Ag              6.05244000      0.06060000     -2.01238000      47      0.08242100     -0.14713000     -0.04229700
Ag              6.06042000      3.97201000      2.01050000      47      0.00267700      0.24355200      0.12146600
Ag              6.05953000      4.11616000     -2.01056000      47      0.03314500     -0.26582900     -0.19468100
32
dft_energy=-127.97374626 dft_virial="-2.26429835      -0.36536856       0.88372561      -0.36536856       1.12377026      -2.81126381       0.88372561      -2.81126381       0.89754636" config_type=ph cutoff=-1.00000000 nneightol=1.20000000 pbc="T T T" Lattice="0.00000000       0.00000000      -8.08849109       0.00000000       8.08849109       0.00000000       8.08165087      -4.04424554       4.04424554" Properties=species:S:1:pos:R:3:Z:I:1:dft_force:R:3
Pd              0.01515000      8.05675000     -0.00546000      46      0.02938000      0.06629500      0.08923300
Pd              0.03041000      8.01979000     -4.00208000      46     -0.27369800      0.55845600     -0.48147600
Pd              0.04030000      3.95584000     -8.06086000      46     -0.16949800      0.45467500     -0.09561900
Pd              8.08018000      0.00137000      0.01896000      46     -0.02434100      0.05494200     -0.14242300
Pd              4.07332000      5.99574000      2.03747000      46     -0.06779500      0.19145800     -0.03405000
Pd              4.05317000      6.03722000     -1.99152000      46     -0.21846500      0.22628800     -0.18274700
Pd              4.08530000      1.92360000     -6.02570000      46     -0.15292200      0.38331400     -0.09949500
Pd              4.01932000      2.06807000     -2.02369000      46      0.09862900     -0.27642200      0.10900600
Pd              1.99818000      0.05085000     -2.05970000      46      0.14424000     -0.38218500      0.47991800
Pd              1.99616000      0.05211000     -6.07117000      46      0.22918500     -0.66577200      0.00325600
Pd              1.97743000      4.13988000     -2.06604000      46      0.15799200     -0.51892000      0.24367400
Pd              2.02964000      4.02196000     -6.03821000      46      0.24383200     -0.33119400      0.11882000
Pd              6.02393000     -1.93850000     -0.04461000      46      0.15936200     -0.57432200      0.40931700
Pd              6.05656000     -2.01366000     -4.02827000      46      0.14314800     -0.41776200     -0.09479200
Pd              6.01771000      2.11810000     -0.03494000      46      0.17313100     -0.57873400      0.05016600
Pd              6.08923000      1.95869000     -4.00330000      46      0.11881200     -0.04400500      0.02344900
Ag              8.05057000     -1.91285000      1.97859000      47      0.18666300     -0.89847600      0.17181700
Ag              0.02630000      1.97505000     -6.05438000      47     -0.12833600      0.12561000      0.19742000
Ag              8.06934000      2.10140000      1.98518000      47      0.14403800     -0.84665700      0.42341100
Ag              0.03379000      5.96332000     -6.02766000      47     -0.18044000      0.55532800     -0.20985400
Ag              4.01934000      0.09865000     -0.04274000      47      0.04159500     -0.60090300      0.17330200
Ag              4.07401000     -0.08673000     -4.01415000      47     -0.17721300      0.27045300     -0.01809700
Ag              4.04423000      4.08072000     -0.02174000      47     -0.00954300     -0.35406300      0.27087400
Ag              4.06939000      3.93587000     -3.99989000      47     -0.13553600      0.50555000     -0.36818000
Ag              2.00942000      2.01002000      0.01238000      47      0.10065700      0.22964000     -0.20483200
Ag              2.05403000      1.93082000     -4.01188000      47     -0.18407800      0.54612100     -0.24652400
Ag              2.03536000      5.98099000      0.03890000      47     -0.13376800      0.64581200     -0.11572400
Ag              2.04080000      6.04431000     -4.04285000      47      0.17312500      0.12938200     -0.16225600
Ag              6.06603000     -0.06011000      2.05251000      47     -0.11067900      0.53456200     -0.21320200
Ag              6.08902000     -0.05406000     -2.00708000      47     -0.12814100      0.40639000     -0.08387600
Ag              6.08840000      3.93718000      2.06650000      47     -0.32773100      0.78979400     -0.10196100
Ag              6.06707000      4.07320000     -2.04102000      47      0.27839400     -0.18465600      0.09144500
32
dft_energy=-128.01349152 dft_virial="-2.39067498       0.20634422       0.73459161       0.20634422       0.87267364      -2.36545575       0.73459161      -2.36545575       0.57166327" config_type=ph cutoff=-1.00000000 nneightol=1.20000000 pbc="T T T" Lattice="0.00000000       0.00000000      -8.08849109       0.00000000       8.08849109       0.00000000       8.08165087      -4.04424554       4.04424554" Properties=species:S:1:pos:R:3:Z:I:1:dft_force:R:3
Pd              0.02919000      0.02632000     -0.01166000      46     -0.56318800      0.16689500     -0.02224100
Pd              7.98518000     -3.98163000     -0.03681000      46      0.12215000     -0.19324100      0.18236100
Pd              0.09647000      3.98163000      0.03681000      46     -0.66680300      0.29060800     -0.40336300
Pd              0.11678000      4.01371000     -4.02249000      46     -0.45129800      0.05774400     -0.01051300
Pd              4.08892000     -2.00502000      2.01614000      46     -0.68327400      0.22777500     -0.08765200
Pd              3.95836000     -1.96064000     -2.05759000      46      0.03898100     -0.16468500      0.19214900
Pd              4.12329000      1.96064000      2.05759000      46     -0.55504800      0.34680000     -0.35534300
Pd              4.16380000      1.98340000     -1.99590000      46     -0.46788200      0.12704500     -0.04604300
Pd              1.90858000      0.06166000     -2.05929000      46      0.37564800     -0.17119600      0.08191100
Pd              2.02242000      0.03794000     -6.08537000      46      0.03094800     -0.34012100      0.20945600
Pd              2.01841000      4.00630000     -2.00312000      46      0.06941200      0.15298600     -0.03935000
Pd              1.90675000      4.07146000     -6.08628000      46      0.70566400      0.08071400      0.12698200
Pd              5.94151000     -1.96297000     -0.03633000      46      0.44393000     -0.10016000      0.07290600
Pd              6.04343000     -1.97685000     -4.06802000      46      0.17846800     -0.30989700      0.23928300
Pd              6.07905000      1.97685000      0.02378000      46     -0.06999800      0.18582500     -0.09931800
Pd              5.95769000      2.04017000     -4.05899000      46      0.60780500      0.10507800      0.07265800
Ag              8.00840000     -2.00835000      2.00384000      47      0.22527900     -0.07149800     -0.03120600
Ag              0.04531000      1.97253000     -6.04918000      47     -0.20223300      0.15929800     -0.00376200
Ag              8.03635000      2.07171000      2.00493000      47     -0.01244200     -0.17476900      0.09161800
Ag              7.96726000      2.08092000     -2.05601000      47      0.35007400     -0.06117100      0.10987100
Ag              3.95468000      0.02341000     -0.02253000      47      0.36413500     -0.20705300     -0.00934400
Ag              4.06910000     -0.04261000     -4.03185000      47     -0.09927000      0.12347600      0.03875200
Ag              4.01255000      4.08685000     -0.01240000      47     -0.16207300     -0.17129400      0.03344600
Ag              3.92901000      4.10634000     -4.07803000      47      0.31319100     -0.15672100      0.12007000
Ag              2.07298000      2.02216000      0.01169000      47     -0.11076800      0.11217800     -0.12754400
Ag              2.13504000      1.96496000     -4.01054000      47     -0.40697000      0.28151600     -0.17027700
Ag              1.90578000      6.12353000     -0.03371000      47      0.53919800     -0.27840600      0.15611200
Ag              1.96890000      6.11830000     -4.06316000      47     -0.11129200      0.06849100     -0.11552600
Ag              6.09722000      0.01007000      2.02869000      47      0.01234400     -0.01071700     -0.09201600
Ag              6.17455000     -0.05190000     -1.98947000      47     -0.37275500      0.18014400     -0.18192400
Ag              5.94793000      4.09614000      1.98947000      47      0.55645200     -0.29315000      0.18719200
Ag              5.99434000      4.10144000     -2.04521000      47      0.00161700      0.03750600     -0.11934600
32
dft_energy=-128.23697384 dft_virial="-2.41519789       0.82578278       0.86366112       0.82578278      -0.66189411      -2.53776293       0.86366112      -2.53776293      -0.55395834" config_type=ph cutoff=-1.00000000 nneightol=1.20000000 pbc="T T T" Lattice="0.00000000       0.00000000      -8.08849109       0.00000000       8.08849109       0.00000000       8.08165087      -4.04424554       4.04424554" Properties=species:S:1:pos:R:3:Z:I:1:dft_force:R:3
Pd              8.08121000      3.97569000     -3.97592000      46     -0.23367500      0.14968500     -0.21718300
Pd              8.07600000     -4.02993000     -0.01731000      46      0.17718800     -0.18233700     -0.01772400
Pd              0.00579000      4.05138000     -0.00407000      46      0.05334700     -0.01237500      0.08529500
Pd              8.08121000     -0.06856000      0.06833000      46      0.04117200      0.07343500     -0.11227400
Pd              4.04461000      6.01532000     -6.01331000      46     -0.23778900      0.19626200     -0.07823300
Pd              4.03588000      6.02901000     -1.98738000      46      0.12025300      0.21513600     -0.32709700
Pd              4.04459000      2.07545000      1.97078000      46      0.15798300     -0.22485600      0.35783200
Pd              4.04461000      1.97108000     -1.96907000      46     -0.03132400      0.03948800     -0.07219400
Pd              2.02343000     -0.05784000     -1.96269000      46     -0.00319600      0.43623800     -0.43990300
Pd              2.02484000      0.04558000     -6.10961000      46      0.02133300     -0.39249800      0.52214200
Pd              2.01504000      4.01676000     -1.99748000      46     -0.07687100     -0.05204000     -0.02417400
Pd              2.02343000      3.98641000     -6.00693000      46      0.01567900      0.30491400     -0.24700400
Pd              6.05986000     -2.08918000      0.06633000      46      0.10837700      0.54858200     -0.40750900
Pd              6.06703000     -2.02619000     -4.03711000      46     -0.06248500      0.02618700     -0.03886900
Pd              6.05588000      2.04717000     -0.02789000      46     -0.00243300     -0.09016200      0.14881300
Pd              6.05986000      1.95507000     -3.97792000      46     -0.02426500      0.22967900     -0.26350200
Ag              0.00030000      1.95098000     -1.95080000      47      0.13059800      0.23050000     -0.07610600
Ag              0.00387000      2.03974000     -6.08167000      47     -0.03068300     -0.10985400      0.17158700
Ag              8.07769000      2.02677000      2.01511000      47     -0.22687800      0.02201000     -0.01414500
Ag              0.00030000      5.99522000     -5.99504000      47      0.16914800      0.14303700     -0.21654200
Ag              4.03823000     -0.05495000      0.05340000      47      0.24110800      0.18606700     -0.09677800
Ag              4.04421000     -0.03651000     -4.00571000      47     -0.03469800      0.10943700     -0.20069000
Ag              4.03825000      4.09794000     -0.05524000      47     -0.23042900     -0.38886800      0.36516700
Ag              4.03823000      3.98930000     -3.99085000      47      0.08585500      0.01386300     -0.17802200
Ag              2.02409000      1.99610000      0.02823000      47      0.00294000      0.21242400     -0.22230400
Ag              2.01835000      1.96048000     -3.98383000      47      0.08709200      0.07578000     -0.13215700
Ag              2.02133000      6.13616000     -0.06924000      47     -0.11627800     -0.80140000      0.81194100
Ag              2.02409000      6.04034000     -4.01602000      47     -0.02353600      0.07942700     -0.09803200
Ag              6.06491000      0.02865000      1.99567000      47     -0.09499600     -0.14465400      0.25933400
Ag              6.06218000     -0.06913000     -1.95243000      47     -0.03301900      0.11832100     -0.09127200
Ag              6.05915000      4.10441000      1.96071000      47     -0.01682700     -0.77121100      0.69487500
Ag              6.06491000      4.07289000     -2.04857000      47      0.06730900     -0.24022000      0.15472800
32
dft_energy=-128.43132862 dft_virial="-3.61394931       0.73432761       0.77477011       0.73432761      -1.21095183      -1.45512158       0.77477011      -1.45512158      -1.11096925" config_type=ph cutoff=-1.00000000 nneightol=1.20000000 pbc="T T T" Lattice="0.00000000       0.00000000      -8.08849109       0.00000000       8.08849109       0.00000000       8.08165087      -4.04424554       4.04424554" Properties=species:S:1:pos:R:3:Z:I:1:dft_force:R:3
Pd              0.01338000      8.01786000     -0.01506000      46     -0.15439800      0.50437000      0.19210900
Pd              8.07172000     -3.98135000      0.01196000      46      0.04345000     -0.14063100     -0.11305800
Pd              0.01163000      3.98962000     -0.01257000      46     -0.04271500      0.34325900      0.06642700
Pd              8.06872000      0.07284000      0.01489000      46      0.02246700     -0.17325900     -0.02247400