32
energy=-127.48425378 virial="0.78796384       0.53295992       3.36365130       0.53295992       2.22070756      -1.58514811       3.36365130      -1.58514811       2.93226791" cutoff=-1.00000000 nneightol=1.20000000 pbc="T T T" Lattice="0.00000000       0.00000000      -8.08849109       0.00000000       8.08849109       0.00000000       8.08165087      -4.04424554       4.04424554" Properties=species:S:1:pos:R:3:Z:I:1:force:R:3
Pd              8.08144000     -4.03849000      4.03485000      46     -0.26816600     -0.03900700      0.06317600
Pd              8.07682000      4.04025000      0.00007000      46      0.21203700      0.00186400      0.03248400
Pd              0.00483000      4.04824000     -0.00007000      46     -0.29872000     -0.01718000     -0.01818500
Pd              8.07190000     -0.00213000     -0.00925000      46      0.27848900     -0.01234100      0.14103800
Pd              4.06940000     -2.02914000     -6.01821000      46     -0.28980100      0.01491900     -0.43741100
Pd              4.01029000      6.07487000     -2.07518000      46      0.45132100     -0.02234200      0.67154500
Pd              4.07136000      2.01362000     -6.01331000      46     -0.30875100      0.11126700     -0.49412400
Pd              4.00908000      2.03190000     -2.07877000      46      0.45872100     -0.08899500      0.70107400
Pd              1.99020000      0.00823000     -2.07431000      46      0.27629800     -0.04479700      0.50200700
Pd              2.04852000     -0.00671000     -6.01932000      46     -0.42057300      0.02077400     -0.55728000
Pd              1.99231000      4.05095000     -2.06918000      46      0.23890100     -0.09734200      0.46118900
Pd              2.04572000      4.03923000     -6.02561000      46     -0.34728900      0.04385300     -0.48315900
Pd              6.05740000     -2.02647000      0.00192000      46      0.26022800      0.01045900      0.02622600
Pd              6.06004000     -2.01603000     -4.05546000      46     -0.21499500      0.00279800     -0.07425000
Pd              6.06244000      2.01603000      0.01121000      46      0.22684600      0.06749800     -0.01380900
Pd              6.05502000      2.02980000     -4.06447000      46     -0.16148400     -0.03260100     -0.03004600
Ag              0.06920000      2.01259000     -1.95231000      47     -0.83362500      0.12625200     -0.83007700
Ag              7.99967000     -2.01276000     -2.09318000      47      0.66526300     -0.13618400      0.57570500
Ag              0.08198000      6.05700000     -1.95107000      47     -0.94800400      0.06589800     -0.85896400
Ag              7.98891000      2.03108000     -2.09267000      47      0.71590000     -0.04783000      0.54058300
Ag              4.14989000     -0.00401000      0.04368000      47     -1.19457200      0.01908800     -0.55507800
Ag              3.93656000      0.00261000     -4.07861000      47      1.17880700     -0.05686600      0.36300200
Ag              4.14509000      4.04164000      0.03436000      47     -1.11858800     -0.01167200     -0.42464800
Ag              3.94393000      4.04539000     -4.06845000      47      1.10324100     -0.00868800      0.24989800
Ag              1.91072000      2.02640000     -0.04539000      47      1.18264500     -0.02190500      0.59780700
Ag              2.13168000      2.01656000     -3.99085000      47     -1.26902200      0.08848400     -0.58068800
Ag              1.90914000      6.07193000     -0.05339000      47      1.21222200      0.00700300      0.69912200
Ag              2.13052000      6.05966000     -3.98417000      47     -1.23279600      0.03966900     -0.63051100
Ag              5.99477000      0.00954000      1.95276000      47      0.82777300     -0.10360800      0.79255000
Ag              6.11293000     -0.00943000     -1.95606000      47     -0.59883700      0.10252900     -0.59421300
Ag              6.00955000      4.05368000      1.95606000      47      0.66478900     -0.07656500      0.70895100
Ag              6.09688000      4.03515000     -1.96098000      47     -0.44825800      0.09557000     -0.54391500
32
energy=-128.37171574 virial="-3.15322159       1.08806338       0.63305800       1.08806338      -0.50592234      -1.54230974       0.63305800      -1.54230974      -1.33969132" cutoff=-1.00000000 nneightol=1.20000000 pbc="T T T" Lattice="0.00000000       0.00000000      -8.08849109       0.00000000       8.08849109       0.00000000       8.08165087      -4.04424554       4.04424554" Properties=species:S:1:pos:R:3:Z:I:1:force:R:3
Pd              0.06568000      0.00648000      0.00002000      46     -0.44428700      0.07113100      0.07975700
Pd              0.06279000     -0.00364000     -4.04972000      46     -0.47032900      0.13860900      0.03905500
Pd              0.05310000      4.03417000     -0.00854000      46     -0.22419700      0.05495300      0.11214700
Pd              0.02924000      4.02653000     -4.05574000      46     -0.13596600      0.11207200      0.06857200
Pd              4.10423000     -2.01248000      2.02404000      46     -0.42970900      0.03503200      0.06379200
Pd              4.10620000     -2.02237000     -2.02584000      46     -0.48482500      0.10674400      0.03529900
Pd              4.09949000      2.01518000      2.01503000      46     -0.25885700      0.02919800      0.10644200
Pd              4.07903000      2.00659000     -2.03289000      46     -0.18961500      0.08952100      0.05973700
Pd              1.95596000     -0.00847000     -2.02333000      46      0.40870300      0.14722700      0.00557800
Pd              1.97015000     -0.01663000     -6.07290000      46      0.39195300      0.24373100      0.08913200
Pd              1.98599000      4.02411000     -2.03148000      46      0.23166100      0.16722900      0.03189600
Pd              2.01550000      4.02261000     -6.07819000      46      0.11996700      0.16845500      0.13115600
Pd              5.99511000     -2.02736000      0.00070000      46      0.40926400      0.10896000     -0.00175900
Pd              6.00482000     -2.03636000     -4.04911000      46      0.42146100      0.21301300      0.07492600
Pd              6.01837000      2.00351000     -0.00805000      46      0.28665900      0.15461600      0.02318300
Pd              6.04603000      2.00046000     -4.05552000      46      0.18699500      0.16406100      0.12021200
Ag              8.03118000     -2.01985000      2.02815000      47      0.29750500     -0.02819900     -0.04863900
Ag              8.04892000     -2.01060000     -2.01258000      47      0.17196500     -0.09506100     -0.07558500
Ag              8.06503000      2.03851000      2.03288000      47      0.06206400     -0.12127500     -0.07468500
Ag              0.01004000      6.08695000     -6.05577000      47     -0.12680400     -0.17223700     -0.08381000
Ag              3.98676000     -0.00102000      0.00452000      47      0.30745000      0.00189500     -0.04764100
Ag              4.00116000      0.00862000     -4.03568000      47      0.19338700     -0.06760300     -0.06403300
Ag              4.01584000      4.05837000      0.01027000      47      0.13367600     -0.07474800     -0.07928700
Ag              4.04193000      4.06390000     -4.03333000      47     -0.05990600     -0.14605800     -0.07980400
Ag              2.07328000      2.03683000      0.00327000      47     -0.26685100     -0.09719900     -0.03964400
Ag              2.05758000      2.04205000     -4.03657000      47     -0.15727800     -0.10282600     -0.08456700
Ag              2.04231000      6.08739000      0.00973000      47     -0.04678300     -0.24529800     -0.09786800
Ag              2.01593000      6.08520000     -4.03326000      47      0.14829300     -0.25366900     -0.03349900
Ag              6.11688000      0.01217000      2.02371000      47     -0.28837400     -0.06056700     -0.02444000
Ag              6.10475000      0.01863000     -2.01577000      47     -0.19050500     -0.07991400     -0.08348200
Ag              6.09114000      4.06497000      2.03093000      47     -0.09747700     -0.22154900     -0.08558600
Ag              6.06573000      4.06431000     -2.01130000      47      0.10075900     -0.24024300     -0.03655400
32
energy=-128.36144266 virial="-3.24852135       1.08136751       0.76195259       1.08136751      -1.04297766      -1.68124979       0.76195259      -1.68124979      -0.85450999" cutoff=-1.00000000 nneightol=1.20000000 pbc="T T T" Lattice="0.00000000       0.00000000      -8.08849109       0.00000000       8.08849109       0.00000000       8.08165087      -4.04424554       4.04424554" Properties=species:S:1:pos:R:3:Z:I:1:force:R:3
Pd              0.03050000      0.02141000      0.00082000      46     -0.10417600     -0.07698100      0.07748200
Pd              0.00477000      8.05722000     -4.04103000      46     -0.06267900      0.08768400     -0.04686800
Pd              0.03157000      4.05049000      0.00227000      46     -0.11529500      0.02403500      0.12520800
Pd              8.07154000     -0.03546000      0.00225000      46     -0.00447800      0.05010700     -0.10419600
Pd              4.05514000      6.04180000      2.02559000      46      0.00907100      0.26692200      0.08593800
Pd              4.01032000      6.04495000     -2.02294000      46      0.08221400      0.11807300     -0.08593800
Pd              4.04059000      1.98862000     -6.06341000      46      0.04534600      0.26211100     -0.03201600
Pd              4.00926000      2.01588000     -2.02439000      46      0.13698000      0.01405500      0.03428900
Pd              1.99004000     -0.00076000     -2.02477000      46      0.16257200     -0.02326300     -0.07566400
Pd              2.01522000     -0.03490000     -6.06372000      46      0.19018800      0.34329200      0.09724500
Pd              1.98878000      4.02747000     -2.02346000      46      0.12291700      0.06183500     -0.02679700
Pd              2.03012000      4.01601000     -6.06299000      46      0.04351600      0.27161200      0.01391800
Pd              6.04654000     -2.05726000      0.00182000      46      0.12532100      0.11579000     -0.07353000
Pd              6.09161000     -2.02136000     -4.04160000      46     -0.10120700      0.02989000      0.03878700
Pd              6.06105000      1.98864000      0.00297000      46     -0.02076500      0.08201000     -0.14006800
Pd              6.09287000      2.03890000     -4.04291000      46     -0.05716000     -0.05948200      0.09595200
Ag              8.03983000     -2.09408000      2.02250000      47      0.26219400      0.43237500     -0.04816100
Ag              0.02025000      2.03634000     -6.06421000      47     -0.11154800     -0.26930900      0.01777500
Ag              8.05069000      1.95937000      2.02348000      47      0.31311100      0.41328600      0.01140800
Ag              0.03581000      6.11109000     -6.06477000      47     -0.24622600     -0.48045400     -0.04425000
Ag              4.04799000     -0.00830000      0.00228000      47     -0.00085500      0.10157400      0.01360300
Ag              4.08264000      0.07196000     -4.04462000      47     -0.24226000     -0.52599700     -0.00480200
Ag              4.06695000      4.06933000      0.00202000      47     -0.17414400     -0.18270500      0.03497900
Ag              4.07178000      4.10700000     -4.04560000      47     -0.16927700     -0.44351400     -0.01483800
Ag              2.05957000      2.09275000     -0.00072000      47     -0.16326600     -0.45720400      0.00082800
Ag              2.03423000      2.02501000     -4.04200000      47     -0.09168700     -0.01279400     -0.00271600
Ag              2.06447000      6.13570000      0.00034000      47     -0.27107500     -0.49116400     -0.04234600
Ag              2.01373000      6.03627000     -4.04207000      47      0.06448600      0.16985600      0.03596000
Ag              6.08731000      0.02498000      2.02415000      47     -0.17761800     -0.38904000      0.03008100
Ag              6.02208000     -0.07063000     -2.02141000      47      0.28745200      0.39660500      0.00778400
Ag              6.06834000      4.03584000      2.02440000      47     -0.05825500     -0.20510400      0.00195800
Ag              6.01718000      3.97491000     -2.02247000      47      0.32660200      0.37589700      0.01899200
32
energy=-128.09407314 virial="-2.95612750      -0.08836959       0.84827613      -0.08836959       0.47524148      -2.11380471       0.84827613      -2.11380471       0.82813243" cutoff=-1.00000000 nneightol=1.20000000 pbc="T T T" Lattice="0.00000000       0.00000000      -8.08849109       0.00000000       8.08849109       0.00000000       8.08165087      -4.04424554       4.04424554" Properties=species:S:1:pos:R:3:Z:I:1:force:R:3
Pd              8.06594000     -4.00229000      4.03135000      46      0.10133000      0.14467200      0.07227400
Pd              0.01045000      8.05267000     -4.04408000      46      0.07182200      0.44013800      0.02569200
Pd              8.08149000     -0.00467000      4.03871000      46     -0.12611600      0.46162400     -0.06466900
Pd              0.02414000      3.96912000     -4.03574000      46     -0.19859700      0.69663600      0.02211800
Pd              4.05127000      6.03054000      2.02229000      46     -0.04442800      0.47844000     -0.06056700
Pd              4.07131000      5.97375000     -2.00899000      46     -0.07025600      0.65400400     -0.16722300
Pd              4.06496000      1.94700000      2.03063000      46     -0.29526500      0.79634400     -0.19823800
Pd              4.07512000      1.92055000     -2.00457000      46     -0.23889400      0.73715100     -0.16252800
Pd              2.04515000     -0.07682000     -2.01321000      46     -0.08623400      0.48133800     -0.13376100
Pd              2.02112000     -0.00722000     -6.07146000      46     -0.08910000      0.19794400      0.00199600
Pd              2.03168000      4.00604000     -2.02150000      46     -0.07198500      0.28651200     -0.04839100
Pd              2.00548000      4.08386000     -6.07893000      46      0.01445000     -0.05784700      0.03095000
Pd              6.06194000     -2.02934000     -0.00509000      46      0.00231300     -0.00532200      0.11193000
Pd              6.03749000     -1.95551000     -4.06035000      46      0.00795700     -0.30021700      0.04921700
Pd              6.04630000      2.06173000     -0.01256000      46      0.06073900     -0.30103200      0.16584500
Pd              6.02885000      2.11635000     -4.06264000      46      0.13677400     -0.54160600      0.12075700
Ag              8.07280000     -1.99976000      2.02337000      47     -0.00570600     -0.29088700     -0.02232600
Ag              8.05467000     -1.94468000     -2.03209000      47      0.20434200     -0.68061200     -0.00208600
Ag              8.06046000      2.08162000      2.01627000      47      0.10068200     -0.54520200      0.03782300
Ag              8.05105000      2.11193000     -2.03632000      47      0.26562300     -0.77397200      0.00427600
Ag              4.01385000      0.07745000     -0.00996000      47      0.13652900     -0.62052700      0.14995300
Ag              4.01152000      0.08717000     -4.05958000      47      0.14420000     -0.67973500      0.16859000
Ag              4.01022000      4.13406000     -0.01420000      47      0.14538800     -0.69428700      0.22333300
Ag              4.01873000      4.11176000     -4.05848000      47      0.13861000     -0.53359700      0.06534600
Ag              1.99308000      2.10070000     -0.01025000      47      0.21307500     -0.42461300      0.12922100
Ag              2.01083000      2.04667000     -4.04338000      47      0.09481100     -0.18870400     -0.03585100
Ag              2.00232000      6.11647000     -0.00393000      47     -0.02160100     -0.21399900      0.03766100
Ag              2.02507000      6.04894000     -4.03650000      47     -0.09929700      0.11374400     -0.04472600
Ag              6.05166000      0.02455000      2.02299000      47      0.13983600     -0.07105900     -0.11264700
Ag              6.07502000     -0.04386000     -2.01065000      47     -0.13692400      0.41228000     -0.05759900
Ag              6.06590000      4.02681000      2.02987000      47     -0.17617400      0.30628200     -0.18009400
Ag              6.08593000      3.96949000     -2.00724000      47     -0.31790400      0.71610800     -0.12627700
32
energy=-127.21597497 virial="-1.31589773       0.06780678       0.89596232       0.06780678       4.49620969      -5.69934362       0.89596232      -5.69934362       5.26312890" cutoff=-1.00000000 nneightol=1.20000000 pbc="T T T" Lattice="0.00000000       0.00000000      -8.08849109       0.00000000       8.08849109       0.00000000       8.08165087      -4.04424554       4.04424554" Properties=species:S:1:pos:R:3:Z:I:1:force:R:3
Pd              0.00457000      7.94819000     -8.03276000      46      0.27055800      1.30995100     -0.99024600
Pd              8.07026000     -3.89415000     -0.05950000      46      0.13923700     -0.65241600      0.30751700
Pd              0.01463000      3.90596000     -8.03375000      46      0.11843500      0.94008900     -0.56614200
Pd              8.06491000      0.09591000     -0.03785000      46      0.15407600     -0.41402100      0.00726100
Pd              4.05221000      5.91627000     -6.00687000      46      0.14590900      1.24376700     -0.91088100
Pd              4.02510000     -1.89495000     -2.07243000      46      0.05819800     -0.49624400      0.15608600
Pd              4.05757000      1.92621000     -6.02852000      46      0.02694500      0.64076300     -0.51944400
Pd              4.02562000      2.05476000     -2.03483000      46      0.03526100     -0.05232000      0.00194600
Pd              2.02945000      0.05174000     -2.04287000      46     -0.13991000     -0.29675900     -0.01530500
Pd              2.00596000      0.01820000     -6.07335000      46      0.13380800     -0.18683600      0.24708100
Pd              2.03678000      3.98068000     -1.99713000      46      0.08705400      0.24951300      0.00696000
Pd              2.00420000      4.16296000     -6.11330000      46     -0.23460100     -0.92217100      0.58811600
Pd              6.07569000     -2.04032000      0.00698000      46     -0.21396200      0.06558400     -0.14843400
Pd              6.04451000     -1.93795000     -4.07743000      46     -0.01850900     -0.79589100      0.67882200
Pd              6.07745000      1.90341000      0.04693000      46     -0.09119700      0.55130700     -0.01989700
Pd              6.04871000      2.17011000     -4.10289000      46     -0.26507900     -1.05921900      0.52425600
Ag              0.01398000      1.97955000     -2.00250000      47      0.09585100     -0.01524200     -0.04307800
Ag              8.06411000     -1.91571000     -2.07124000      47     -0.13576900     -0.67970600      0.53941700
Ag              0.01781000      5.92961000     -1.95897000      47      0.11255000      0.45889000     -0.21963200
Ag              8.06667000      2.17873000     -2.09447000      47     -0.11879200     -1.25651000      0.99460200
Ag              4.05837000     -0.10641000      0.04912000      47     -0.04543600      0.17906700     -0.09390000
Ag              4.02354000      0.14705000     -4.11216000      47     -0.06825300     -0.78316700      0.62540000
Ag              4.05581000      3.88764000      0.07234000      47      0.09779900      0.45566600     -0.38763200
Ag              4.03194000      4.18656000     -4.11001000      47     -0.10002900     -1.00868700      1.03164600
Ag              2.03244000      1.86901000      0.07074000      47      0.02301700      0.62706100     -0.41758900
Ag              2.00367000      2.17374000     -4.11427000      47      0.00909400     -0.32769300      0.16390600
Ag              2.03831000      5.93444000      0.06092000      47      0.21609300      0.77418100     -0.86282400
Ag              2.00407000      6.14551000     -4.08076000      47     -0.21927700     -0.01442200      0.36018000
Ag              6.07798000     -0.15162000      2.09215000      47     -0.02824600      0.86407900     -0.60005000
Ag              6.04343000      0.11707000     -2.07617000      47      0.01592300     -0.23189800      0.07327700
Ag              6.07758000      3.96510000      2.05864000      47      0.33535900      0.48399000     -0.66392500
Ag              6.05000000      4.05335000     -2.02628000      47     -0.39610900      0.34929500      0.15250700
32
energy=-127.55432247 virial="0.37944011       0.92961655       0.84444474       0.92961655       2.66369075      -2.81112190       0.84444474      -2.81112190       2.48768088" cutoff=-1.00000000 nneightol=1.20000000 pbc="T T T" Lattice="0.00000000       0.00000000      -8.08849109       0.00000000       8.08849109       0.00000000       8.08165087      -4.04424554       4.04424554" Properties=species:S:1:pos:R:3:Z:I:1:force:R:3
Pd              8.03179000     -4.01137000      3.99791000      46      0.64695900     -0.02274300      0.07748200
Pd              0.06635000      0.00312000     -4.04864000      46     -0.72159600     -0.50513000      0.34962700
Pd              0.05123000      4.07593000     -0.04465000      46     -0.66046600     -0.50006300      0.68316500
Pd              8.07539000     -0.04949000      0.06974000      46      0.05413200      0.36427800     -0.51122500
Pd              4.05737000     -1.97397000      1.95427000      46     -0.12784500     -0.40658700      0.46722300
Pd              4.07466000      6.02358000     -1.96182000      46     -0.38385700      0.05222700     -0.20659200
Pd              4.10184000      2.00237000      2.04995000      46     -0.78089100     -0.00326900      0.01645600
Pd              3.97901000      2.00383000     -1.99634000      46      0.65615400      0.15108700     -0.24796800
Pd              1.99887000      0.04703000     -2.08840000      46      0.13197700     -0.68229100      0.81699200
Pd              1.99117000     -0.04465000     -6.00346000      46      0.15086600      0.23613000     -0.64751900
Pd              1.96166000      4.02098000     -1.98934000      46      0.75230200      0.37018300     -0.48936400
Pd              2.08396000      4.02963000     -6.04578000      46     -0.58873600     -0.04296600      0.09128600
Pd              5.99542000     -2.01512000     -0.00986000      46      0.55405400     -0.58149800      0.40677000
Pd              6.10116000     -2.06187000     -3.98823000      46     -0.19624100      0.64336800     -0.54004400
Pd              6.06229000      1.97242000      0.07004000      46      0.14477200      0.50006500     -0.59258000
Pd              6.10750000      2.05783000     -4.09456000      46     -0.47286500     -0.52109600      0.66251000
Ag              0.07376000      2.04832000     -2.04487000      47     -1.09767500     -0.31389100      0.28689000
Ag              8.05014000     -2.08745000     -1.96539000      47      0.57005000      0.57690000     -0.34140100
Ag              0.01730000      5.99690000     -1.96180000      47     -0.01884300      0.58494600     -0.69269600
Ag              8.01468000      2.06027000     -2.05525000      47      0.28853800     -0.45728300      0.40148000
Ag              4.10032000     -0.04708000      0.04088000      47     -0.96143100      0.51266200     -0.49896100
Ag              3.96166000     -0.00446000     -4.04037000      47      0.78409100     -0.05834900      0.13858300
Ag              3.97970000      3.99888000      0.03940000      47      0.59923900      0.23504800     -0.23915800
Ag              4.04830000      4.11511000     -4.10579000      47     -0.02942000     -0.50243700      0.58247800
Ag              2.01916000      2.09330000     -0.06181000      47     -0.10324300     -0.87554100      0.84413500
Ag              1.96522000      1.97100000     -3.99985000      47      0.64787600      0.72917800     -0.63463300
Ag              1.94227000      6.05412000      0.01063000      47      0.58332800      0.39807800      0.05110300
Ag              2.08532000      6.02544000     -4.00871000      47     -0.53342700      0.00534200     -0.08236500
Ag              5.99000000      0.03131000      1.99493000      47      0.63316000     -0.55583600      0.69996000
Ag              6.08694000     -0.06734000     -1.96364000      47     -0.06165900      0.53638000     -0.53505800
Ag              6.03792000      3.97621000      2.08121000      47      0.30803900      0.68982100     -0.76707300
Ag              6.13134000      4.07756000     -2.05105000      47     -0.76734300     -0.55671400      0.45049800
32
energy=-128.03745657 virial="-1.69863792       0.35135311       1.65109364       0.35135311       0.20321574      -2.06182842       1.65109364      -2.06182842       0.55833424" cutoff=-1.00000000 nneightol=1.20000000 pbc="T T T" Lattice="0.00000000       0.00000000      -8.08849109       0.00000000       8.08849109       0.00000000       8.08165087      -4.04424554       4.04424554" Properties=species:S:1:pos:R:3:Z:I:1:force:R:3
Pd              8.07416000     -4.02428000      4.03039000      46     -0.16997300     -0.22667000      0.20693200
Pd              8.07692000     -4.03573000     -0.02414000      46      0.01286600     -0.00403900      0.09294000
Pd              0.00473000      4.03573000     -8.06435000      46     -0.26529500      0.20083400     -0.21296900
Pd              8.06746000      0.03201000     -0.04800000      46      0.22482700     -0.37350600      0.48835600
Pd              4.04059000     -2.01887000     -6.05692000      46     -0.18129700     -0.13923800      0.00499000
Pd              4.02965000     -1.99785000     -2.06349000      46      0.04608400     -0.06992600      0.31529500
Pd              4.05200000      1.99785000     -6.02500000      46     -0.29686900      0.32057800     -0.35418200
Pd              4.02478000      2.05970000     -2.07119000      46      0.22439700     -0.43617300      0.61761700
Pd              2.00674000      0.03064000     -2.06912000      46      0.21498100     -0.24765000      0.45886400
Pd              2.02414000     -0.00610000     -6.04513000      46     -0.19538900      0.03310500     -0.27373900
Pd              2.01669000      4.05035000     -2.04336000      46      0.04234800     -0.10323100      0.25495700
Pd              2.01201000      4.06625000     -6.08333000      46      0.12034800     -0.13760900      0.02553400
Pd              6.05287000     -2.00481000     -0.03417000      46      0.20998900     -0.18510000      0.33966800
Pd              6.05747000     -2.01066000     -4.04585000      46     -0.15589500      0.00674100     -0.18133800
Pd              6.06501000      2.01066000      0.00161000      46      0.01390800      0.15696600      0.08700300
Pd              6.04755000      2.05564000     -4.08069000      46      0.17311800     -0.22954200      0.11452800
Ag              0.06274000      1.98995000     -1.97101000      47     -0.71981000      0.41235700     -0.61842900
Ag              8.00174000     -2.00869000     -2.04591000      47      0.62541000     -0.26789400      0.23808500
Ag              0.07991000      6.05293000     -1.99833000      47     -0.79744500      0.08781200     -0.26949500
Ag              8.03137000      2.00895000     -2.00465000      47      0.28091200      0.23699300     -0.23728400
Ag              4.11955000     -0.02269000      0.03761000      47     -0.91658200      0.24282600     -0.47674700
Ag              3.97362000     -0.00259000     -4.04342000      47      0.63956400     -0.13276000      0.05789800
Ag              4.10803000      4.04684000     -0.00082000      47     -0.71793600     -0.02217200     -0.01508500
Ag              4.02451000      4.01790000     -4.00547000      47      0.14508300      0.33126500     -0.43233900
Ag              1.94010000      2.03762000     -0.02690000      47      0.85483700     -0.11057700      0.42269500
Ag              2.07974000      1.98916000     -3.99210000      47     -0.72337100      0.42038200     -0.61618300
Ag              1.96109000      6.09933000     -0.05214000      47      0.56545100     -0.06688800      0.45521200
Ag              2.02399000      6.03524000     -3.99740000      47     -0.09025000      0.13734600     -0.47770900
Ag              5.98805000      0.02794000      1.97689000      47      0.80790000     -0.24493400      0.54351300
Ag              6.08946000     -0.03439000     -1.96926000      47     -0.48798500      0.43239500     -0.60556900
Ag              6.03302000      4.07864000      1.96926000      47      0.28943500     -0.14763700      0.33976200
Ag              6.02796000      4.02355000     -1.99260000      47      0.22663900      0.12594500     -0.29278000
32
energy=-128.38285905 virial="-3.48930852       0.49571519       0.97591670       0.49571519      -0.88126705      -2.17364510       0.97591670      -2.17364510      -0.90174406" cutoff=-1.00000000 nneightol=1.20000000 pbc="T T T" Lattice="0.00000000       0.00000000      -8.08849109       0.00000000       8.08849109       0.00000000       8.08165087      -4.04424554       4.04424554" Properties=species:S:1:pos:R:3:Z:I:1:force:R:3
Pd              8.04255000     -3.99024000      4.02198000      46      0.29543800     -0.34547800      0.14501300
Pd              0.04091000      8.03144000     -4.01901000      46     -0.24024200      0.40064600     -0.27888600
Pd              8.06433000      0.02141000     -4.04536000      46      0.11785800     -0.11140600     -0.02562700
Pd              0.02305000      4.01450000     -4.03839000      46     -0.11475600      0.11278400     -0.03725000
Pd              4.01262000     -1.98477000     -6.07682000      46      0.17530600     -0.22010700      0.03614400
Pd              4.07350000      6.02234000     -2.00734000      46     -0.21589300      0.29999900     -0.14376700