32
energy=-128.34740919 virial="-2.59188097       1.02951993       0.42493834       1.02951993      -1.32318101      -1.33971442       0.42493834      -1.33971442      -1.15104544" cutoff=-1.00000000 nneightol=1.20000000 pbc="T T T" Lattice="0.00000000       0.00000000      -8.08849109       0.00000000       8.08849109       0.00000000       8.08165087      -4.04424554       4.04424554" Properties=species:S:1:pos:R:3:Z:I:1:force:R:3
Pd              0.00279000      8.05836000     -0.03164000      46     -0.04542700      0.14159600      0.15579700
Pd              8.07615000     -3.98349000      0.06123000      46      0.02513600     -0.27022800     -0.26138200
Pd              0.00156000      4.02610000     -0.01649000      46      0.01683300      0.27399700      0.22376700
Pd              0.00279000      4.01412000     -4.07588000      46     -0.00404300      0.09172500      0.11339900
Pd              4.04436000      6.02788000      1.98228000      46     -0.01753100      0.16635500      0.19109600
Pd              4.03515000     -1.95927000     -1.95907000      46      0.01066300     -0.24538900     -0.24074100
Pd              4.04151000      2.01370000      2.01542000      46      0.00947200      0.23333300      0.18356200
Pd              4.04436000      1.98364000     -2.06197000      46     -0.00461000      0.13273000      0.13432900
Pd              2.01723000      0.03460000     -1.98609000      46      0.05161300      0.05770300     -0.01717600
Pd              2.01931000      0.01311000     -6.05496000      46     -0.02675100     -0.29872800     -0.21396800
Pd              2.02602000      3.98221000     -2.08450000      46      0.00932200      0.27054900      0.23296800
Pd              2.01723000      4.07885000     -6.03033000      46     -0.03510800     -0.01974700     -0.01255100
Pd              6.05883000     -1.99626000      0.02743000      46      0.04480300      0.10944800      0.02052800
Pd              6.05927000     -1.99947000     -4.02322000      46     -0.02179000     -0.33663900     -0.26959400
Pd              6.06661000      1.96290000     -0.05982000      46      0.02250600      0.27119200      0.21740200
Pd              6.05883000      2.04799000     -4.01681000      46     -0.03796000      0.02985300      0.03496000
Ag              8.07810000     -1.98779000      2.04672000      47     -0.09537500     -0.14599500     -0.02954800
Ag              0.00701000      1.96240000     -6.12304000      47     -0.05643600      0.31002100      0.33642700
Ag              8.07966000      2.03329000      2.04401000      47      0.02366200     -0.22605700     -0.24535400
Ag              8.07810000      2.05646000     -1.99752000      47      0.10809200     -0.05487400     -0.12364200
Ag              4.03632000      0.04175000      0.03299000      47     -0.07002100     -0.17468600     -0.05899100
Ag              4.04806000     -0.06073000     -4.10365000      47     -0.07077600      0.28715400      0.32208000
Ag              4.03996000      4.04593000      0.01275000      47     -0.00867000     -0.18907000     -0.21817100
Ag              4.03632000      4.08600000     -4.01126000      47      0.13641500     -0.08243000     -0.15785600
Ag              2.01326000      2.08255000      0.05828000      47      0.13525500     -0.24074800     -0.33909400
Ag              2.02447000      1.98380000     -4.07332000      47      0.06446500      0.16971200      0.05114400
Ag              2.02647000      6.01923000     -0.05335000      47     -0.11703600      0.16920500      0.32412200
Ag              2.01326000      6.12680000     -3.98597000      47     -0.06748800     -0.25013700     -0.18794800
Ag              6.05439000      0.05871000      2.07700000      47      0.12790500     -0.25505500     -0.35045100
Ag              6.06430000     -0.03048000     -2.04249000      47      0.08067100      0.13029400      0.02060600
Ag              6.06785000      3.99169000      1.96489000      47     -0.13051700      0.22362500      0.36286500
Ag              6.05439000      4.10296000     -1.96725000      47     -0.05727200     -0.27871100     -0.19858400
32
energy=-128.04186881 virial="-1.64871758       0.81951592       0.42214647       0.81951592       0.49402555      -1.46080432       0.42214647      -1.46080432       0.40260008" cutoff=-1.00000000 nneightol=1.20000000 pbc="T T T" Lattice="0.00000000       0.00000000      -8.08849109       0.00000000       8.08849109       0.00000000       8.08165087      -4.04424554       4.04424554" Properties=species:S:1:pos:R:3:Z:I:1:force:R:3
Pd              0.01413000     -0.00325000     -0.08043000      46     -0.33976500     -0.01869400      0.61483100
Pd              8.06695000      4.04705000      0.06915000      46      0.29263700      0.00923700     -0.43721600
Pd              0.01322000      4.04063000     -0.08973000      46     -0.32730800      0.04359800      0.67569800
Pd              8.06752000      0.00325000      0.08043000      46      0.30753100     -0.03202500     -0.52031900
Pd              4.03837000      6.06331000      1.94456000      46     -0.01632700     -0.02213400      0.42750700
Pd              4.04095000     -2.01866000     -1.93470000      46      0.05609400      0.00060400     -0.76143500
Pd              4.03610000      2.01954000      1.95633000      46      0.02604200      0.00413700      0.36514900
Pd              4.04328000      2.02518000     -1.94456000      46     -0.00922900     -0.04317900     -0.68956700
Pd              2.00613000      0.00316000     -1.94402000      46      0.12252200      0.01377700     -0.72041900
Pd              2.03386000     -0.00354000     -6.15423000      46     -0.06829700     -0.01623500      0.46790500
Pd              2.00564000      4.04694000     -1.95571000      46      0.12728000     -0.02744300     -0.63476600
Pd              2.03470000      4.04109000     -6.14447000      46     -0.06860200      0.01240100      0.41105700
Pd              6.05483000     -2.02429000     -0.05548000      46      0.29433400      0.00342900      0.43253800
Pd              6.06967000     -2.02053000     -4.00319000      46     -0.26910700      0.01420700     -0.23930900
Pd              6.05701000      2.01943000     -0.06854000      46      0.24865000      0.05109100      0.53431000
Pd              6.06765000      2.02429000     -3.98877000      46     -0.22380200     -0.01238600     -0.32757000
Ag              8.07754000     -2.01679000      2.08171000      47     -0.23413500     -0.07689600     -0.49652800
Ag              0.00453000      2.01576000     -6.13580000      47      0.20358600      0.05312400      0.38078400
Ag              8.07807000      2.02629000      2.07039000      47     -0.28182900     -0.01345400     -0.39996900
Ag              0.00411000      6.06104000     -6.12595000      47      0.25254200      0.01616600      0.32172200
Ag              4.04318000     -0.00608000     -0.05750000      47     -0.00058700      0.05714100      0.53232700
Ag              4.03921000      0.00501000     -3.99831000      47      0.00022600     -0.02889300     -0.26378500
Ag              4.04386000      4.03725000     -0.06766000      47     -0.00665100      0.00562300      0.60392800
Ag              4.03847000      4.05032000     -3.98674000      47      0.00170900     -0.00135800     -0.32651100
Ag              2.02502000      2.01555000     -0.07139000      47     -0.02747100      0.06052100      0.60478300
Ag              2.01620000      2.02770000     -3.98235000      47      0.00695800     -0.02853800     -0.38674800
Ag              2.02531000      6.05896000     -0.07912000      47     -0.08632000      0.00788400      0.66993900
Ag              2.01580000      6.07294000     -3.97286000      47      0.04202600      0.00075100     -0.44171600
Ag              6.06412000     -0.00681000      1.95658000      47     -0.32315100      0.06042100      0.41717700
Ag              6.05773000      0.00760000     -1.94770000      47      0.30046400     -0.08948100     -0.60807500
Ag              6.06343000      4.03839000      1.96707000      47     -0.30404200      0.00872500      0.34609500
Ag              6.05835000      4.05105000     -1.95658000      47      0.30402200     -0.01211900     -0.55181700
32
energy=-127.99376836 virial="-2.26060225       0.70783125       1.87969361       0.70783125       1.18296713      -1.97563029       1.87969361      -1.97563029       0.77848930" cutoff=-1.00000000 nneightol=1.20000000 pbc="T T T" Lattice="0.00000000       0.00000000      -8.08849109       0.00000000       8.08849109       0.00000000       8.08165087      -4.04424554       4.04424554" Properties=species:S:1:pos:R:3:Z:I:1:force:R:3
Pd              8.07155000      4.04409000      4.01843000      46     -0.00862100     -0.01029900      0.47477000
Pd              8.05691000      4.04628000     -0.06546000      46      0.26157700     -0.03720300      0.81013800
Pd              8.06625000      0.00059000      4.00412000      46      0.00358800     -0.02418700      0.52286400
Pd              8.05310000      0.00269000     -0.07585000      46      0.27350900     -0.03038800      0.84196700
Pd              4.00917000      6.06964000      1.93774000      46      0.10971200     -0.06162200      0.71565200
Pd              4.00473000      6.07087000     -2.11904000      46      0.31426500     -0.08166200      0.83030700
Pd              4.00684000      2.02590000      1.93129000      46      0.10954600     -0.06027600      0.72082600
Pd              4.00500000      2.02683000     -2.11852000      46      0.28576600     -0.05224100      0.78168000
Pd              2.03804000     -0.00092000     -1.97595000      46     -0.09144600      0.02198100     -0.30705400
Pd              2.02181000      0.00131000     -6.06397000      46      0.02048600      0.00000000     -0.04418300
Pd              2.03290000      4.04407000     -1.98987000      46     -0.06399700      0.01458400     -0.24051300
Pd              2.01615000      4.04626000     -6.07917000      46      0.02974500      0.00212200      0.01829900
Pd              6.05142000     -2.01945000     -0.02769000      46      0.00954900     -0.03120300      0.26407700
Pd              6.03671000     -2.01794000     -4.11113000      46      0.12713700     -0.02992200      0.44886400
Pd              6.04610000      2.02539000     -0.04189000      46      0.03471100     -0.03820100      0.35600300
Pd              6.03287000      2.02662000     -4.12130000      46      0.12612600     -0.04563300      0.50941000
Ag              0.01268000      2.02099000     -1.97430000      47     -0.09291100     -0.00329200     -0.61883700
Ag              0.02444000      2.01911000     -5.98925000      47     -0.12905300      0.01814800     -0.81122400
Ag              0.01706000      6.06456000     -1.96300000      47     -0.11163100      0.02487200     -0.68274300
Ag              0.02728000      6.06286000     -5.98300000      47     -0.12101100      0.04020300     -0.83712800
Ag              4.07026000     -0.00392000      0.08757000      47     -0.18592500      0.04778300     -0.76220000
Ag              4.07228000     -0.00455000     -3.95717000      47     -0.17068600      0.06962900     -0.74275900
Ag              4.07170000      4.04001000      0.08961000      47     -0.18157100      0.07227100     -0.77158400
Ag              4.07140000      4.03970000     -3.96168000      47     -0.16189600      0.05724000     -0.71114000
Ag              2.00575000      2.02356000     -0.05299000      47      0.10717900     -0.00367700      0.36299400
Ag              2.02006000      2.02144000     -4.05854000      47      0.01200100      0.00560200      0.09734000
Ag              2.01031000      6.06711000     -0.04099000      47      0.09529300     -0.02070000      0.30581200
Ag              2.02500000      6.06498000     -4.04449000      47     -0.03941900     -0.00160800      0.01309800
Ag              6.07067000     -0.00205000      2.03593000      47     -0.02691200      0.04198100     -0.20006700
Ag              6.08333000     -0.00367000     -1.96954000      47     -0.23386800      0.02764600     -0.50641300
Ag              6.07527000      4.04159000      2.04964000      47     -0.04287400      0.03829700     -0.27432400
Ag              6.08660000      4.04019000     -1.95880000      47     -0.25837000      0.04975400     -0.56393200
32
energy=-128.14587266 virial="-2.11748760       0.40769871       2.08558241       0.40769871      -0.23974434      -1.82149007       2.08558241      -1.82149007       0.11607708" cutoff=-1.00000000 nneightol=1.20000000 pbc="T T T" Lattice="0.00000000       0.00000000      -8.08849109       0.00000000       8.08849109       0.00000000       8.08165087      -4.04424554       4.04424554" Properties=species:S:1:pos:R:3:Z:I:1:force:R:3
Pd              0.03749000     -0.00984000     -8.05038000      46     -0.14886200      0.07353100     -0.00623700
Pd              0.02195000      8.07712000     -4.02455000      46      0.01599000     -0.00690900     -0.21362000
Pd              0.05326000      4.02741000     -8.03568000      46     -0.29475400      0.21306600     -0.15868800
Pd              8.07702000     -0.00249000     -0.00642000      46      0.23609300     -0.02236000      0.03998500
Pd              4.07816000     -2.03814000     -6.03131000      46     -0.03593300      0.01949400     -0.41123400
Pd              3.98479000      6.08477000     -2.07736000      46      0.55268800      0.00208500      0.53370100
Pd              4.05417000      2.01353000     -6.05517000      46      0.00180300      0.08733300     -0.36409500
Pd              3.98484000      2.04242000     -2.07642000      46      0.57745800     -0.19597000      0.57301800
Pd              2.01113000     -0.00084000     -2.03307000      46      0.09502700     -0.06290000      0.16013300
Pd              2.07528000     -0.01770000     -6.01214000      46     -0.47481300      0.06293700     -0.39656300
Pd              2.03796000      4.03428000     -2.00678000      46     -0.18645300      0.10535300     -0.15727500
Pd              2.06134000      4.03300000     -6.02501000      46     -0.30539600      0.06901300     -0.17493500
Pd              6.11884000     -2.04204000      0.05632000      46     -0.30182900      0.02249200     -0.17496400
Pd              6.03533000     -2.00951000     -4.06788000      46      0.15834500     -0.04721500      0.17768500
Pd              6.11269000      2.00620000      0.05116000      46     -0.31626800      0.12901200     -0.18030700
Pd              6.01479000      2.04059000     -4.08854000      46      0.21510200     -0.21722000      0.27777800
Ag              0.07986000      2.00253000     -1.97763000      47     -0.47653700      0.13813900     -0.33723300
Ag              8.03102000     -2.00663000     -2.04462000      47      0.36872700     -0.25513500      0.33356900
Ag              0.06383000      6.05227000     -1.98365000      47     -0.23853500     -0.06056500     -0.18094000
Ag              8.00756000      2.04233000     -2.05963000      47      0.43695300     -0.10111000      0.33150800
Ag              4.01240000      0.01037000     -0.00950000      47      0.26060100     -0.03288400      0.05128500
Ag              3.98570000      0.01150000     -4.07873000      47      0.69944500     -0.09806100      0.28786900
Ag              3.98084000      4.06175000     -0.02824000      47      0.51838500     -0.08264000      0.24699700
Ag              4.01895000      4.04655000     -4.06215000      47      0.34276100     -0.03146500      0.06396900
Ag              1.96476000      2.03871000     -0.02555000      47      0.58132800     -0.23720000      0.49448800
Ag              2.09869000      2.00319000     -4.00011000      47     -0.81979100      0.21671300     -0.47988400
Ag              1.99784000      6.07534000     -0.00618000      47      0.28260700      0.00088600      0.32430100
Ag              2.10041000      6.04543000     -4.00211000      47     -0.81831400      0.01273600     -0.44136100
Ag              6.12871000     -0.01523000      2.06219000      47     -0.19762400      0.05026200     -0.16230600
Ag              6.07128000     -0.00590000     -2.02292000      47     -0.35707300      0.07983300      0.00297300
Ag              6.14209000      4.02415000      2.06669000      47     -0.32235100      0.11866600     -0.27690900
Ag              6.03348000      4.04812000     -2.04307000      47     -0.04878200      0.05008300      0.21729100
32
energy=-128.38778357 virial="-3.06317225       0.80068895       0.83436959       0.80068895      -1.20318013      -2.01264731       0.83436959      -2.01264731      -1.23319438" cutoff=-1.00000000 nneightol=1.20000000 pbc="T T T" Lattice="0.00000000       0.00000000      -8.08849109       0.00000000       8.08849109       0.00000000       8.08165087      -4.04424554       4.04424554" Properties=species:S:1:pos:R:3:Z:I:1:force:R:3
Pd              8.07844000     -3.99282000      4.01658000      46      0.21149800     -0.31772200      0.09631100
Pd              0.00605000      8.04031000     -4.01829000      46     -0.20103900      0.36242600     -0.08292200
Pd              8.06395000     -0.02456000     -4.03127000      46      0.01293300      0.03792500     -0.04648500
Pd              0.01654000      4.07604000     -4.06112000      46     -0.03865100     -0.06687300      0.05046200
Pd              4.02960000     -1.98389000      2.00145000      46      0.22437200     -0.23873400     -0.03001700
Pd              4.05426000      6.03459000     -2.00489000      46     -0.22253000      0.22869600      0.06038200
Pd              4.02780000      1.97836000     -6.04302000      46      0.00048200      0.10664700     -0.06511500
Pd              4.05159000      2.07031000     -2.04788000      46     -0.01370300     -0.10775400      0.06693600
Pd              2.00388000      0.01830000     -2.03216000      46      0.07002500     -0.10897700      0.21089700
Pd              2.03537000     -0.02603000     -6.05220000      46     -0.07693100      0.26895600     -0.31021700
Pd              2.03165000      4.09165000     -2.04745000      46     -0.04387800     -0.10677700      0.02896600
Pd              2.00697000      4.00150000     -6.04357000      46      0.03365300      0.09637000     -0.06474600
Pd              6.05048000     -1.98272000     -0.02130000      46     -0.00434500     -0.21375300      0.20697100
Pd              6.06946000     -2.06684000     -4.02012000      46      0.00162300      0.41714000     -0.32352400
Pd              6.07804000      2.05254000     -0.01613000      46     -0.10296900     -0.10266800      0.02518300
Pd              6.04335000      1.99908000     -4.03209000      46      0.08372400      0.06318400     -0.03324500
Ag              8.07579000     -1.96119000      1.97405000      47     -0.07203800     -0.26114600      0.12673800
Ag              0.00355000      1.95919000     -6.01677000      47      0.12669600      0.30067100     -0.13205600
Ag              0.01506000      6.07418000     -2.02798000      47     -0.00278600     -0.17832800      0.21587100
Ag              8.06622000      2.02425000     -2.02410000      47      0.00029100      0.12071500     -0.17554000
Ag              4.04210000      0.06227000     -0.04898000      47     -0.11272000     -0.23415300      0.11066600
Ag              4.03715000     -0.05962000     -3.99739000      47      0.17785600      0.28192800     -0.10496200
Ag              4.05586000      4.02264000      0.01730000      47      0.03480900      0.06328500      0.07444900
Ag              4.02655000      4.07491000     -4.06866000      47     -0.07058800     -0.08540100     -0.03803500
Ag              2.00596000      2.05104000     -0.02304000      47      0.03480000     -0.07834100      0.06980100
Ag              2.03555000      2.00239000     -4.02842000      47     -0.03263700      0.05642300     -0.04243300
Ag              2.01721000      6.00610000      0.04737000      47     -0.01799200      0.33536000     -0.24862300
Ag              2.02121000      6.12898000     -4.09351000      47      0.00872600     -0.48263600      0.28229400
Ag              6.04585000      0.00014000      2.02171000      47      0.04716100      0.06035100      0.00328500
Ag              6.07618000      0.00978000     -2.02953000      47     -0.03973700     -0.09568400      0.04040600
Ag              6.06526000      3.98159000      2.07152000      47     -0.07690300      0.39241700     -0.31698900
Ag              6.05493000      4.10460000     -2.06975000      47      0.06080000     -0.51354500      0.34529100
32
energy=-127.83317694 virial="-1.29056960       2.05443954       1.17640657       2.05443954       1.69887553       0.14827268       1.17640657       0.14827268       1.36864294" cutoff=-1.00000000 nneightol=1.20000000 pbc="T T T" Lattice="0.00000000       0.00000000      -8.08849109       0.00000000       8.08849109       0.00000000       8.08165087      -4.04424554       4.04424554" Properties=species:S:1:pos:R:3:Z:I:1:force:R:3
Pd              8.02897000      3.96735000      3.98889000      46      0.23731000      0.65917000      0.59106600
Pd              0.01141000      0.01294000     -4.02346000      46     -0.09534500     -0.25407700     -0.34869900
Pd              0.04549000      4.11234000     -8.04474000      46     -0.30839000     -0.52262600     -0.43725300
Pd              8.04809000     -0.04595000     -0.04247000      46      0.11970800      0.26191000      0.33779700
Pd              4.00131000      6.01134000      1.97430000      46      0.18980500      0.34839600      0.42598400
Pd              4.01245000      6.02192000     -2.04473000      46      0.25408200      0.36508300      0.21018000
Pd              4.09192000      2.09554000     -6.00993000      46     -0.40753900     -0.48442200     -0.28886200
Pd              4.04590000      2.03324000     -2.02559000      46     -0.03328800     -0.09495400      0.04200300
Pd              1.97118000     -0.07029000     -2.07756000      46      0.56248100      0.83907600      0.60979700
Pd              2.04692000      0.04181000     -6.04593000      46     -0.23643300     -0.32021700     -0.49843000
Pd              2.05563000      4.09271000     -1.97813000      46     -0.36178600     -0.47067500     -0.31856100
Pd              1.97607000      3.97769000     -6.10859000      46      0.33333900      0.43090300      0.52339000
Pd              6.01297000     -2.09388000     -0.04762000      46      0.30760000      0.81845700      0.40968700
Pd              6.04770000     -2.03820000     -4.06720000      46      0.15725700      0.08430700     -0.11298200
Pd              6.11394000      2.09861000      0.05641000      46     -0.21947300     -0.65680900     -0.45353200
Pd              6.05014000      2.00231000     -4.04733000      46     -0.08722400      0.13621300      0.33690100
Ag              8.03913000     -2.09265000      1.96914000      47      0.18222000      0.55415000      0.39183100
Ag              8.07331000     -2.02934000     -2.04241000      47     -0.07609100     -0.10197800     -0.21953300
Ag              0.04478000      6.13759000     -1.96178000      47     -0.30584300     -0.85426000     -0.55188900
Ag              8.06893000      1.99562000     -2.02986000      47      0.10185900      0.28668200      0.32705600
Ag              4.02149000     -0.03680000     -0.01701000      47      0.22894600      0.36110000      0.07775900
Ag              4.00355000     -0.05640000     -4.09879000      47      0.45808800      0.38648400      0.23752400
Ag              4.07658000      4.10561000      0.04145000      47     -0.45152200     -0.68989000     -0.40002600
Ag              4.06247000      4.07352000     -4.00739000      47     -0.23396500     -0.24972300     -0.15624300
Ag              2.03491000      2.05142000      0.01021000      47     -0.05140700     -0.36631100     -0.32795100
Ag              1.97591000      1.95161000     -4.10461000      47      0.38889100      0.64598300      0.54878400
Ag              2.02690000      6.07057000      0.01791000      47      0.02351500      0.16335800      0.10416800
Ag              2.06353000      6.13760000     -3.99011000      47     -0.56181300     -0.88529200     -0.72163400
Ag              6.10173000      0.06792000      2.07141000      47     -0.08361100     -0.44678700     -0.39862900
Ag              6.03517000     -0.03678000     -2.06425000      47     -0.08500800      0.16607400      0.20097100
Ag              6.03423000      3.99575000      1.99402000      47      0.20072800      0.51201800      0.40178700
Ag              6.10120000      4.10560000     -1.96496000      47     -0.14708900     -0.62134100     -0.54245800
32
energy=-128.29254578 virial="-3.01086596       0.97397295       1.29039470       0.97397295      -0.14990952      -1.51162888       1.29039470      -1.51162888      -0.91904969" cutoff=-1.00000000 nneightol=1.20000000 pbc="T T T" Lattice="0.00000000       0.00000000      -8.08849109       0.00000000       8.08849109       0.00000000       8.08165087      -4.04424554       4.04424554" Properties=species:S:1:pos:R:3:Z:I:1:force:R:3
Pd              0.07660000      0.00185000     -8.02975000      46     -0.56477600     -0.00977300     -0.54879400
Pd              8.08150000      4.04402000      0.00028000      46     -0.12919000      0.00050700     -0.05321200
Pd              0.07374000      4.04599000     -8.03188000      46     -0.54554600     -0.02452200     -0.53352200
Pd              8.06936000     -0.00052000     -0.00902000      46     -0.06629500     -0.00241300     -0.01053400
Pd              4.11456000     -2.02038000     -6.00976000      46     -0.54884900     -0.01072400     -0.55401200
Pd              4.02854000      6.06585000     -2.03114000      46     -0.05560300      0.00153200     -0.02883100
Pd              4.10988000      2.02372000     -6.01329000      46     -0.51141900     -0.02226600     -0.52074400
Pd              4.01671000      2.02132000     -2.04022000      46      0.01023500      0.00003900      0.01694400
Pd              2.04053000      0.00071000     -2.00710000      46     -0.02535400     -0.02383200     -0.03559300
Pd              1.94955000     -0.00165000     -6.12081000      46      0.49833600      0.00484700      0.49747500
Pd              2.02856000      4.04467000     -2.01628000      46      0.01572000      0.02148400     -0.01197200
Pd              1.94548000      4.04246000     -6.12387000      46      0.50717900      0.02769500      0.51263000
Pd              6.06938000     -2.02170000      0.00584000      46      0.05001300     -0.02120000     -0.00698900
Pd              5.98631000     -2.02391000     -4.10174000      46      0.53005000      0.00576900      0.50207100
Pd              6.05721000      2.02224000     -0.00348000      46      0.09124900      0.02249000      0.02082800
Pd              5.98409000      2.02025000     -4.10339000      46      0.51905100      0.02701200      0.49574400
Ag              0.04710000      2.02336000     -1.98616000      47     -0.12543400     -0.01820900     -0.02242700
Ag              8.02789000     -2.02339000     -2.06397000      47     -0.05235000     -0.01827700      0.21699300
Ag              0.03684000      6.06736000     -1.99412000      47     -0.08745100      0.01568900     -0.00313600
Ag              8.01976000      2.02064000     -2.07018000      47     -0.01997200      0.01962400      0.24416600
Ag              4.07767000      0.00099000      0.02800000      47     -0.05401500     -0.01841200      0.00789600
Ag              3.97893000     -0.00148000     -4.09231000      47      0.00700500     -0.01539900      0.22466600
Ag              4.06650000      4.04496000      0.01935000      47     -0.01147100      0.01747100      0.03023300
Ag              3.97233000      4.04259000     -4.09734000      47      0.02848600      0.01922500      0.24287200
Ag              2.07968000      2.02354000      0.04606000      47     -0.02576400     -0.00684700     -0.22281200
Ag              1.97994000      2.02105000     -4.07506000      47      0.04054600      0.00044500     -0.00535900
Ag              2.07107000      6.06756000      0.03947000      47      0.01926100      0.00492200     -0.19263400
Ag              1.97004000      6.06506000     -4.08274000      47      0.10928200      0.00069300      0.04246900
Ag              6.11189000      0.00119000      2.06159000      47      0.03743900     -0.00052700     -0.21349100
Ag              6.01087000     -0.00131000     -2.06062000      47      0.10647600     -0.00185700      0.02436000
Ag              6.10204000      4.04518000      2.05403000      47      0.08687600      0.00076600     -0.18294100
Ag              6.00222000      4.04273000     -2.06735000      47      0.16628300      0.00405000      0.06765600
32
energy=-128.35098120 virial="-2.96390579       1.10344836       0.74937268       1.10344836      -0.83170642      -1.55434514       0.74937268      -1.55434514      -1.20447707" cutoff=-1.00000000 nneightol=1.20000000 pbc="T T T" Lattice="0.00000000       0.00000000      -8.08849109       0.00000000       8.08849109       0.00000000       8.08165087      -4.04424554       4.04424554" Properties=species:S:1:pos:R:3:Z:I:1:force:R:3
Pd              8.07498000     -3.96136000     -4.03726000      46      0.13185400     -0.31091200     -0.02240500
Pd              8.07510000     -3.97026000      0.00687000      46      0.04426800     -0.25440600     -0.02173800
Pd              8.07444000      0.08825000     -4.03670000      46      0.14535300     -0.35977000     -0.05059300
Pd              8.07583000      0.06442000      0.00611000      46      0.04084500     -0.20602900      0.00048800
Pd              4.03331000     -1.93466000     -6.05849000      46      0.08577500     -0.53287800     -0.09305400
Pd              4.03912000     -2.00893000     -2.02033000      46      0.00546600     -0.08426300      0.00968200