<UPF version="2.0.1">
  <PP_INFO>
    Generated using "atomic" code by A. Dal Corso  v.5.1
    Author: ADC
    Generation date: 10Oct2014
    Pseudopotential type: PAW
    Element: Al
    Functional:  SLA  PW   PBX  PBC

    Suggested minimum cutoff for wavefunctions:  29. Ry
    Suggested minimum cutoff for charge density: 143. Ry
    The Pseudo was generated with a Scalar-Relativistic Calculation
    Local Potential by smoothing AE potential with Bessel fncs, cutoff radius:   1.9000
    Pseudopotential contains additional information for GIPAW reconstruction.

    Valence configuration: 
    nl pn  l   occ       Rcut    Rcut US       E pseu
    3S  1  0  2.00      1.700      1.900    -0.569826
    3P  2  1  1.00      1.700      2.000    -0.199338
    Generation configuration:
    3S  1  0  2.00      1.700      1.900    -0.569824
    3S  1  0  0.00      1.700      1.900     6.000000
    3P  2  1  1.00      1.700      2.000    -0.199338
    3P  2  1  0.00      1.700      2.000     3.500000
    3D  3  2  0.00      1.700      1.900     0.100000
    3D  3  2  0.00      1.700      1.900     0.300000

    Pseudization used: troullier-martins
<PP_INPUTFILE>
 &input
   title='Al',
   zed=13.,
   rel=1,
   config='[Ne] 3s2 3p1 3d-1',
   iswitch=3,
   dft='PBE'
 /
 &inputp
   lpaw=.true.,
   pseudotype=3,
   file_pseudopw='Al.pbe-n-kjpaw_psl.1.0.0.UPF',
   author='ADC',
   lloc=-1,
   rcloc=1.9,
   which_augfun='PSQ',
   rmatch_augfun_nc=.true.,
   nlcc=.true.,
   new_core_ps=.true.,
   rcore=1.8,
   tm=.true.
 /
6
3S  1  0  2.00  0.00  1.70  1.90  0.0
3S  1  0  0.00  6.00  1.70  1.90  0.0
3P  2  1  1.00  0.00  1.70  2.00  0.0
3P  2  1  0.00  3.50  1.70  2.00  0.0
3D  3  2  0.00  0.10  1.70  1.90  0.0
3D  3  2  0.00  0.30  1.70  1.90  0.0
</PP_INPUTFILE>
  </PP_INFO>
  <!--                               -->
  <!-- END OF HUMAN READABLE SECTION -->
  <!--                               -->
  <PP_HEADER generated='Generated using "atomic" code by A. Dal Corso  v.5.1'
             author="ADC"
             date="10Oct2014"
             comment=""
             element="Al"
             pseudo_type="PAW"
             relativistic="scalar"
             is_ultrasoft="T"
             is_paw="T"
             is_coulomb="F"
             has_so="F"
             has_wfc="T"
             has_gipaw="T"
             paw_as_gipaw="T"
             core_correction="T"
             functional=" SLA  PW   PBX  PBC"
             z_valence="3.000000000000000E+000"
             total_psenergy="-3.922759814471728E+001"
             wfc_cutoff="2.949430082155506E+001"
             rho_cutoff="1.434836740307051E+002"
             l_max="2"
             l_max_rho="4"
             l_local="-1"
             mesh_size="1135"
             number_of_wfc="2"
             number_of_proj="6"/>
</UPF>
