 vasp.5.3.3 18Dez12 (build Jun 21 2016 14:15:03) complex                        
  
 executed on             LinuxIFC date 2017.10.10  16:16:28
 serial version


--------------------------------------------------------------------------------------------------------


 INCAR:
 POTCAR:    PAW_PBE Pd_pv 28Jan2005               
 POTCAR:    PAW_PBE Pd_pv 28Jan2005               
   VRHFIN =Pd: 4p5s4d                                                           
   LEXCH  = PE                                                                  
   EATOM  =  2621.5550 eV,  192.6789 Ry                                         
                                                                                
   TITEL  = PAW_PBE Pd_pv 28Jan2005                                             
   LULTRA =        F    use ultrasoft PP ?                                      
   IUNSCR =        1    unscreen: 0-lin 1-nonlin 2-no                           
   RPACOR =    2.250    partial core radius                                     
   POMASS =  106.420; ZVAL   =   16.000    mass and valenz                      
   RCORE  =    2.400    outmost cutoff radius                                   
   RWIGS  =    2.300; RWIGS  =    1.217    wigner-seitz radius (au A)           
   ENMAX  =  250.925; ENMIN  =  188.194 eV                                      
   ICORE  =        3    local potential                                         
   LCOR   =        T    correct aug charges                                     
   LPAW   =        T    paw PP                                                  
   EAUG   =  473.067                                                            
   DEXC   =    0.000                                                            
   RMAX   =    2.449    core radius for proj-oper                               
   RAUG   =    1.300    factor for augmentation sphere                          
   RDEP   =    2.405    radius for radial grids                                 
   RDEPT  =    1.966    core radius for aug-charge                              
                                                                                
   Atomic configuration                                                         
   11 entries                                                                   
     n  l   j            E        occ.                                          
     1  0  0.50    -24164.6632   2.0000                                         
     2  0  0.50     -3530.9218   2.0000                                         
     2  1  1.50     -3165.6822   6.0000                                         
     3  0  0.50      -639.4578   2.0000                                         
     3  1  1.50      -519.4532   6.0000                                         
     3  2  2.50      -328.9758  10.0000                                         
     4  0  0.50       -88.7014   2.0000                                         
     4  1  1.50       -54.4541   6.0000                                         
     4  2  2.50        -6.6878   9.0000                                         
     5  0  0.50        -4.3543   1.0000                                         
     4  3  2.50        -1.3606   0.0000                                         
   Description                                                                  
     l       E           TYP  RCUT    TYP  RCUT                                 
     1    -54.4540524     23  2.100                                             
     1      4.0817478     23  2.100                                             
     2     -6.6878326     23  2.400                                             
     2     -4.0817478     23  2.400                                             
     0     -4.3542962     23  2.400                                             
     0     13.6058260     23  2.400                                             
     3     -5.4423304     23  2.400                                             
  local pseudopotential read in
  partial core-charges read in
  partial kinetic energy density read in
  atomic valenz-charges read in
  non local Contribution for L=           1  read in
    real space projection operators read in
  non local Contribution for L=           1  read in
    real space projection operators read in
  non local Contribution for L=           2  read in
    real space projection operators read in
  non local Contribution for L=           2  read in
    real space projection operators read in
  non local Contribution for L=           0  read in
    real space projection operators read in
  non local Contribution for L=           0  read in
    real space projection operators read in
    PAW grid and wavefunctions read in
 
   number of l-projection  operators is LMAX  =           6
   number of lm-projection operators is LMMAX =          18
 

 ----------------------------------------------------------------------------- 
|                                                                             |
|  ADVICE TO THIS USER RUNNING 'VASP/VAMP'   (HEAR YOUR MASTER'S VOICE ...):  |
|                                                                             |
|      You have a (more or less) 'large supercell' and for larger cells       |
|      it might be more efficient to use real space projection opertators     |
|      So try LREAL= Auto  in the INCAR   file.                               |
|      Mind: At the moment your POTCAR file does not contain real space       |
|       projectors, and has to be modified,  BUT if you                       |
|      want to do an extremely  accurate calculation you might also keep the  |
|      reciprocal projection scheme          (i.e. LREAL=.FALSE.)             |
|                                                                             |
 ----------------------------------------------------------------------------- 

  PAW_PBE Pd_pv 28Jan2005               :
 energy of atom  1       EATOM=-2621.5550
 kinetic energy error for atom=    0.0092 (will be added to EATOM!!)
 
 
 POSCAR: Pd                                      
  positions in cartesian coordinates
  No initial velocities read in
 exchange correlation table for  LEXCH =        8
   RHO(1)=    0.500       N(1)  =     2000
   RHO(2)=  100.500       N(2)  =     4000
 


--------------------------------------------------------------------------------------------------------


 ion  position               nearest neighbor table
   1  0.001  0.000  0.000-   5 2.77   8 2.77  17 2.77  20 2.77   2 2.78   4 2.78  29 2.78  31 2.78
                            27 2.78  28 2.78  13 2.78  14 2.78
   2  0.000  0.250  0.250-   3 2.78   5 2.78   6 2.78  14 2.78  15 2.78  17 2.78  18 2.78  25 2.78
                            28 2.78  30 2.78  32 2.78   1 2.78
   3  0.000  0.500  0.500-   2 2.78   4 2.78   6 2.78   7 2.78  15 2.78  16 2.78  18 2.78  19 2.78
                            25 2.78  26 2.78  29 2.78  31 2.78
   4  0.000  0.750  0.750-   3 2.78   7 2.78   8 2.78  13 2.78  16 2.78  19 2.78  20 2.78  26 2.78
                            27 2.78  30 2.78  32 2.78   1 2.78
   5  0.250  0.000  0.250-   1 2.77   2 2.78   6 2.78   8 2.78   9 2.78  12 2.78  17 2.78  19 2.78
                            21 2.78  24 2.78  31 2.78  32 2.78
   6  0.250  0.250  0.500-   2 2.78   3 2.78   5 2.78   7 2.78   9 2.78  10 2.78  18 2.78  20 2.78
                            21 2.78  22 2.78  29 2.78  32 2.78
   7  0.250  0.500  0.750-   3 2.78   4 2.78   6 2.78   8 2.78  10 2.78  11 2.78  17 2.78  19 2.78
                            22 2.78  23 2.78  29 2.78  30 2.78
   8  0.250  0.750  0.000-   1 2.77   4 2.78   5 2.78   7 2.78  11 2.78  12 2.78  18 2.78  20 2.78
                            23 2.78  24 2.78  30 2.78  31 2.78
   9  0.500  0.000  0.500-   5 2.78   6 2.78  10 2.78  12 2.78  13 2.78  16 2.78  19 2.78  20 2.78
                            21 2.78  23 2.78  25 2.78  28 2.78
  10  0.500  0.250  0.750-   6 2.78   7 2.78   9 2.78  11 2.78  13 2.78  14 2.78  17 2.78  20 2.78
                            22 2.78  24 2.78  25 2.78  26 2.78
  11  0.500  0.500  0.000-   7 2.78   8 2.78  10 2.78  12 2.78  14 2.78  15 2.78  17 2.78  18 2.78
                            21 2.78  23 2.78  26 2.78  27 2.78
  12  0.500  0.750  0.250-   5 2.78   8 2.78   9 2.78  11 2.78  15 2.78  16 2.78  18 2.78  19 2.78
                            22 2.78  24 2.78  27 2.78  28 2.78
  13  0.750  0.000  0.750-   4 2.78   9 2.78  10 2.78  14 2.78  16 2.78  23 2.78  24 2.78  25 2.78
                            27 2.78  29 2.78  32 2.78   1 2.78
  14  0.750  0.250  0.000-   2 2.78  10 2.78  11 2.78  13 2.78  15 2.78  21 2.78  24 2.78  26 2.78
                            28 2.78  29 2.78  30 2.78   1 2.78
  15  0.750  0.500  0.250-   2 2.78   3 2.78  11 2.78  12 2.78  14 2.78  16 2.78  21 2.78  22 2.78
                            25 2.78  27 2.78  30 2.78  31 2.78
  16  0.750  0.750  0.500-   3 2.78   4 2.78   9 2.78  12 2.78  13 2.78  15 2.78  22 2.78  23 2.78
                            26 2.78  28 2.78  31 2.78  32 2.78
  17  0.250  0.250  0.000-   1 2.77   2 2.78   5 2.78   7 2.78  10 2.78  11 2.78  18 2.78  20 2.78
                            21 2.78  24 2.78  29 2.78  30 2.78
  18  0.250  0.500  0.250-   2 2.78   3 2.78   6 2.78   8 2.78  11 2.78  12 2.78  17 2.78  19 2.78
                            21 2.78  22 2.78  30 2.78  31 2.78
  19  0.250  0.750  0.500-   3 2.78   4 2.78   5 2.78   7 2.78   9 2.78  12 2.78  18 2.78  20 2.78
                            22 2.78  23 2.78  31 2.78  32 2.78
  20  0.250  0.000  0.750-   1 2.77   4 2.78   6 2.78   8 2.78   9 2.78  10 2.78  17 2.78  19 2.78
                            23 2.78  24 2.78  29 2.78  32 2.78
  21  0.500  0.250  0.250-   5 2.78   6 2.78   9 2.78  11 2.78  14 2.78  15 2.78  17 2.78  18 2.78
                            22 2.78  24 2.78  25 2.78  28 2.78
  22  0.500  0.500  0.500-   6 2.78   7 2.78  10 2.78  12 2.78  15 2.78  16 2.78  18 2.78  19 2.78
                            21 2.78  23 2.78  25 2.78  26 2.78
  23  0.500  0.750  0.750-   7 2.78   8 2.78   9 2.78  11 2.78  13 2.78  16 2.78  19 2.78  20 2.78
                            22 2.78  24 2.78  26 2.78  27 2.78
  24  0.500  0.000  0.000-   5 2.78   8 2.78  10 2.78  12 2.78  13 2.78  14 2.78  17 2.78  20 2.78
                            21 2.78  23 2.78  27 2.78  28 2.78
  25  0.750  0.250  0.500-   2 2.78   3 2.78   9 2.78  10 2.78  13 2.78  15 2.78  21 2.78  22 2.78
                            26 2.78  28 2.78  29 2.78  32 2.78
  26  0.750  0.500  0.750-   3 2.78   4 2.78  10 2.78  11 2.78  14 2.78  16 2.78  22 2.78  23 2.78
                            25 2.78  27 2.78  29 2.78  30 2.78
  27  0.750  0.750  0.000-   4 2.78  11 2.78  12 2.78  13 2.78  15 2.78  23 2.78  24 2.78  26 2.78
                            28 2.78  30 2.78  31 2.78   1 2.78
  28  0.750  0.000  0.250-   2 2.78   9 2.78  12 2.78  14 2.78  16 2.78  21 2.78  24 2.78  25 2.78
                            27 2.78  31 2.78  32 2.78   1 2.78
  29  0.000  0.250  0.750-   3 2.78   6 2.78   7 2.78  13 2.78  14 2.78  17 2.78  20 2.78  25 2.78
                            26 2.78  30 2.78  32 2.78   1 2.78
  30  0.000  0.500  0.000-   2 2.78   4 2.78   7 2.78   8 2.78  14 2.78  15 2.78  17 2.78  18 2.78
                            26 2.78  27 2.78  29 2.78  31 2.78
  31  0.000  0.750  0.250-   3 2.78   5 2.78   8 2.78  15 2.78  16 2.78  18 2.78  19 2.78  27 2.78
                            28 2.78  30 2.78  32 2.78   1 2.78
  32  0.000  0.000  0.500-   2 2.78   4 2.78   5 2.78   6 2.78  13 2.78  16 2.78  19 2.78  20 2.78
                            25 2.78  28 2.78  29 2.78  31 2.78
 

IMPORTANT INFORMATION: All symmetrisations will be switched off!
NOSYMM: (Re-)initialisation of all symmetry stuff for point group C_1.

 
 
 KPOINTS: Server version 2017.05.18. K-point grid 
  k-points in reciprocal lattice
Space group operators:
 irot       det(A)        alpha          n_x          n_y          n_z        tau_x        tau_y        tau_z
    1     1.000000     0.000000     1.000000     0.000000     0.000000     0.000000     0.000000     0.000000


--------------------------------------------------------------------------------------------------------




 Dimension of arrays:
   k-points           NKPTS =     24   k-points in BZ     NKDIM =     24   number of bands    NBANDS=    307
   number of dos      NEDOS =    301   number of ions     NIONS =     32
   non local maximal  LDIM  =      6   non local SUM 2l+1 LMDIM =     18
   total plane-waves  NPLWV = 216000
   max r-space proj   IRMAX =      1   max aug-charges    IRDMAX= 142975
   dimension x,y,z NGX =    60 NGY =   60 NGZ =   60
   dimension x,y,z NGXF=   120 NGYF=  120 NGZF=  120
   support grid    NGXF=   240 NGYF=  240 NGZF=  240
   ions per type =              32
 NGX,Y,Z   is equivalent  to a cutoff of  12.70, 12.70, 12.70 a.u.
 NGXF,Y,Z  is equivalent  to a cutoff of  25.40, 25.40, 25.40 a.u.


 I would recommend the setting:
   dimension x,y,z NGX =    57 NGY =   57 NGZ =   57
 SYSTEM =  unknown system                          
 POSCAR =  Pd                                      

 Startparameter for this run:
   NWRITE =      2    write-flag & timer
   PREC   = a         normal or accurate (medium, high low for compatibility)
   ISTART =      0    job   : 0-new  1-cont  2-samecut
   ICHARG =      2    charge: 1-file 2-atom 10-const
   ISPIN  =      1    spin polarized calculation?
   LNONCOLLINEAR =      F non collinear calculations
   LSORBIT =      F    spin-orbit coupling
   INIWAV =      1    electr: 0-lowe 1-rand  2-diag
   LASPH  =      F    aspherical Exc in radial PAW
   METAGGA=      F    non-selfconsistent MetaGGA calc.

 Electronic Relaxation 1
   ENCUT  =  500.0 eV  36.75 Ry    6.06 a.u.  14.32 14.32 14.32*2*pi/ulx,y,z
   ENINI  =  500.0     initial cutoff
   ENAUG  =  473.1 eV  augmentation charge cutoff
   NELM   =     60;   NELMIN=  2; NELMDL= -5     # of ELM steps 
   EDIFF  = 0.1E-07   stopping-criterion for ELM
   LREAL  =      F    real-space projection
   NLSPLINE    = F    spline interpolate recip. space projectors
   LCOMPAT=      F    compatible to vasp.4.4
   GGA_COMPAT  = T    GGA compatible to vasp.4.4-vasp.4.6
   LMAXPAW     = -100 max onsite density
   LMAXMIX     =    2 max onsite mixed and CHGCAR
   VOSKOWN=      0    Vosko Wilk Nusair interpolation
   ROPT   =    0.00000
 Ionic relaxation
   EDIFFG = 0.1E-06   stopping-criterion for IOM
   NSW    =      0    number of steps for IOM
   NBLOCK =      1;   KBLOCK =      1    inner block; outer block 
   IBRION =     -1    ionic relax: 0-MD 1-quasi-New 2-CG
   NFREE  =      0    steps in history (QN), initial steepest desc. (CG)
   ISIF   =      2    stress and relaxation
   IWAVPR =      0    prediction:  0-non 1-charg 2-wave 3-comb
   ISYM   =      0    0-nonsym 1-usesym 2-fastsym
   LCORR  =      T    Harris-Foulkes like correction to forces

   POTIM  = 0.5000    time-step for ionic-motion
   TEIN   =    0.0    initial temperature
   TEBEG  =    0.0;   TEEND  =   0.0 temperature during run
   SMASS  =  -3.00    Nose mass-parameter (am)
   estimated Nose-frequenzy (Omega)   =  0.10E-29 period in steps =****** mass=  -0.141E-26a.u.
   SCALEE = 1.0000    scale energy and forces
   NPACO  =    256;   APACO  = 16.0  distance and # of slots for P.C.
   PSTRESS=    0.0 pullay stress

  Mass of Ions in am
   POMASS = 106.42
  Ionic Valenz
   ZVAL   =  16.00
  Atomic Wigner-Seitz radii
   RWIGS  =  -1.00
  virtual crystal weights 
   VCA    =   1.00
   NELECT =     512.0000    total number of electrons
   NUPDOWN=      -1.0000    fix difference up-down

 DOS related values:
   EMIN   =  10.00;   EMAX   =-10.00  energy-range for DOS
   EFERMI =   0.00
   ISMEAR =     0;   SIGMA  =   0.10  broadening in eV -4-tet -1-fermi 0-gaus

 Electronic relaxation 2 (details)
   IALGO  =     38    algorithm
   LDIAG  =      T    sub-space diagonalisation (order eigenvalues)
   LSUBROT=      T    optimize rotation matrix (better conditioning)
   TURBO    =      0    0=normal 1=particle mesh
   IRESTART =      0    0=no restart 2=restart with 2 vectors
   NREBOOT  =      0    no. of reboots
   NMIN     =      0    reboot dimension
   EREF     =   0.00    reference energy to select bands
   IMIX   =      4    mixing-type and parameters
     AMIX     =   0.40;   BMIX     =  1.00
     AMIX_MAG =   1.60;   BMIX_MAG =  1.00
     AMIN     =   0.10
     WC   =   100.;   INIMIX=   1;  MIXPRE=   1;  MAXMIX= -45

 Intra band minimization:
   WEIMIN = 0.0000     energy-eigenvalue tresh-hold
   EBREAK =  0.81E-11  absolut break condition
   DEPER  =   0.30     relativ break condition  

   TIME   =   0.40     timestep for ELM

  volume/ion in A,a.u.               =      15.14       102.17
  Fermi-wavevector in a.u.,A,eV,Ry     =   1.667531  3.151177 37.833172  2.780660
  Thomas-Fermi vector in A             =   2.753537
 
 Write flags
   LWAVE  =      F    write WAVECAR
   LCHARG =      T    write CHGCAR
   LVTOT  =      F    write LOCPOT, total local potential
   LVHAR  =      F    write LOCPOT, Hartree potential only
   LELF   =      F    write electronic localiz. function (ELF)
   LORBIT =      0    0 simple, 1 ext, 2 COOP (PROOUT)


 Dipole corrections
   LMONO  =      F    monopole corrections only (constant potential shift)
   LDIPOL =      F    correct potential (dipole corrections)
   IDIPOL =      0    1-x, 2-y, 3-z, 4-all directions 
   EPSILON=  1.0000000 bulk dielectric constant

 Exchange correlation treatment:
   GGA     =    --    GGA type
   LEXCH   =     8    internal setting for exchange type
   VOSKOWN=      0    Vosko Wilk Nusair interpolation
   LHFCALC =     F    Hartree Fock is set to
   LHFONE  =     F    Hartree Fock one center treatment
   AEXX    =    0.0000 exact exchange contribution

 Linear response parameters
   LEPSILON=     F    determine dielectric tensor
   LRPA    =     F    only Hartree local field effects (RPA)
   LNABLA  =     F    use nabla operator in PAW spheres
   LVEL    =     F    velocity operator in full k-point grid
   LINTERFAST=   F  fast interpolation
   KINTER  =     0    interpolate to denser k-point grid
   CSHIFT  =0.1000    complex shift for real part using Kramers Kronig
   OMEGAMAX=  -1.0    maximum frequency
   DEG_THRESHOLD= 0.2000000E-02 threshold for treating states as degnerate
   RTIME   =    0.100 relaxation time in fs

 Orbital magnetization related:
   ORBITALMAG=     F  switch on orbital magnetization
   LCHIMAG   =     F  perturbation theory with respect to B field
   DQ        =  0.001000  dq finite difference perturbation B field



--------------------------------------------------------------------------------------------------------


 Static calculation
 charge density and potential will be updated during run
 non-spin polarized calculation
 Variant of blocked Davidson
 Davidson routine will perform the subspace rotation
 perform sub-space diagonalisation
    after iterative eigenvector-optimisation
 modified Broyden-mixing scheme, WC =      100.0
 initial mixing is a Kerker type mixing with AMIX =  0.4000 and BMIX =      1.0000
 Hartree-type preconditioning will be used
 using additional bands           51
 reciprocal scheme for non local part
 use partial core corrections
 calculate Harris-corrections to forces 
   (improved forces if not selfconsistent)
 use gradient corrections 
 use of overlap-Matrix (Vanderbilt PP)
 Gauss-broadening in eV      SIGMA  =   0.10


--------------------------------------------------------------------------------------------------------


  energy-cutoff  :      500.00
  volume of cell :      484.48
      direct lattice vectors                 reciprocal lattice vectors
     7.854000000 -0.000000000 -0.000000000     0.127323657  0.000000000 -0.000000000
    -0.000000000  7.854000000  0.000000000     0.000000000  0.127323657 -0.000000000
     0.000000000  0.000000000  7.854000000     0.000000000 -0.000000000  0.127323657

  length of vectors
     7.854000000  7.854000000  7.854000000     0.127323657  0.127323657  0.127323657


 
 k-points in units of 2pi/SCALE and weight: Server version 2017.05.18. K-point grid 
   0.03183091  0.01591546  0.11671335       0.042
   0.06366183  0.01591546  0.09549274       0.042
   0.09549274  0.01591546  0.07427213       0.042
   0.00000000  0.01591546  0.05305152       0.042
   0.03183091  0.01591546  0.03183091       0.042
   0.06366183  0.01591546  0.01061030       0.042
   0.09549274  0.01591546  0.11671335       0.042
   0.00000000  0.01591546  0.09549274       0.042
   0.03183091  0.01591546  0.07427213       0.042
   0.06366183  0.01591546  0.05305152       0.042
   0.09549274  0.01591546  0.03183091       0.042
   0.00000000  0.01591546  0.01061030       0.042
   0.03183091  0.04774637  0.09549274       0.042
   0.06366183  0.04774637  0.07427213       0.042
   0.09549274  0.04774637  0.05305152       0.042
   0.00000000  0.04774637  0.03183091       0.042
   0.03183091  0.04774637  0.01061030       0.042
   0.06366183  0.04774637  0.11671335       0.042
   0.09549274  0.04774637  0.09549274       0.042
   0.00000000  0.04774637  0.07427213       0.042
   0.03183091  0.04774637  0.05305152       0.042
   0.06366183  0.04774637  0.03183091       0.042
   0.09549274  0.04774637  0.01061030       0.042
   0.00000000  0.04774637  0.11671335       0.042
 
 k-points in reciprocal lattice and weights: Server version 2017.05.18. K-point grid 
   0.25000000  0.12500000  0.91666667       0.042
   0.50000000  0.12500000  0.75000000       0.042
   0.75000000  0.12500000  0.58333333       0.042
   0.00000000  0.12500000  0.41666667       0.042
   0.25000000  0.12500000  0.25000000       0.042
   0.50000000  0.12500000  0.08333333       0.042
   0.75000000  0.12500000  0.91666667       0.042
   0.00000000  0.12500000  0.75000000       0.042
   0.25000000  0.12500000  0.58333333       0.042
   0.50000000  0.12500000  0.41666667       0.042
   0.75000000  0.12500000  0.25000000       0.042
   0.00000000  0.12500000  0.08333333       0.042
   0.25000000  0.37500000  0.75000000       0.042
   0.50000000  0.37500000  0.58333333       0.042
   0.75000000  0.37500000  0.41666667       0.042
   0.00000000  0.37500000  0.25000000       0.042
   0.25000000  0.37500000  0.08333333       0.042
   0.50000000  0.37500000  0.91666667       0.042
   0.75000000  0.37500000  0.75000000       0.042
   0.00000000  0.37500000  0.58333333       0.042
   0.25000000  0.37500000  0.41666667       0.042
   0.50000000  0.37500000  0.25000000       0.042
   0.75000000  0.37500000  0.08333333       0.042
   0.00000000  0.37500000  0.91666667       0.042
 
 position of ions in fractional coordinates (direct lattice) 
   0.00127324  0.00000000  0.00000000
   0.00000000  0.25000000  0.25000000
   0.00000000  0.50000000  0.50000000
   0.00000000  0.75000000  0.75000000
   0.25000000  0.00000000  0.25000000
   0.25000000  0.25000000  0.50000000
   0.25000000  0.50000000  0.75000000
   0.25000000  0.75000000  0.00000000
   0.50000000  0.00000000  0.50000000
   0.50000000  0.25000000  0.75000000
   0.50000000  0.50000000  0.00000000
   0.50000000  0.75000000  0.25000000
   0.75000000  0.00000000  0.75000000
   0.75000000  0.25000000  0.00000000
   0.75000000  0.50000000  0.25000000
   0.75000000  0.75000000  0.50000000
   0.25000000  0.25000000  0.00000000
   0.25000000  0.50000000  0.25000000
   0.25000000  0.75000000  0.50000000
   0.25000000  0.00000000  0.75000000
   0.50000000  0.25000000  0.25000000
   0.50000000  0.50000000  0.50000000
   0.50000000  0.75000000  0.75000000
   0.50000000  0.00000000  0.00000000
   0.75000000  0.25000000  0.50000000
   0.75000000  0.50000000  0.75000000
   0.75000000  0.75000000  0.00000000
   0.75000000  0.00000000  0.25000000
   0.00000000  0.25000000  0.75000000
   0.00000000  0.50000000  0.00000000
   0.00000000  0.75000000  0.25000000
   0.00000000  0.00000000  0.50000000
 
 position of ions in cartesian coordinates  (Angst):
   0.01000000 -0.00000000 -0.00000000
   0.00000000  1.96350000  1.96350000
   0.00000000  3.92700000  3.92700000
   0.00000000  5.89050000  5.89050000
   1.96350000  0.00000000  1.96350000
   1.96350000  1.96350000  3.92700000
   1.96350000  3.92700000  5.89050000
   1.96350000  5.89050000  0.00000000
   3.92700000  0.00000000  3.92700000
   3.92700000  1.96350000  5.89050000
   3.92700000  3.92700000  0.00000000
   3.92700000  5.89050000  1.96350000
   5.89050000  0.00000000  5.89050000
   5.89050000  1.96350000 -0.00000000
   5.89050000  3.92700000  1.96350000
   5.89050000  5.89050000  3.92700000
   1.96350000  1.96350000  0.00000000
   1.96350000  3.92700000  1.96350000
   1.96350000  5.89050000  3.92700000
   1.96350000  0.00000000  5.89050000
   3.92700000  1.96350000  1.96350000
   3.92700000  3.92700000  3.92700000
   3.92700000  5.89050000  5.89050000
   3.92700000 -0.00000000 -0.00000000
   5.89050000  1.96350000  3.92700000
   5.89050000  3.92700000  5.89050000
   5.89050000  5.89050000  0.00000000
   5.89050000 -0.00000000  1.96350000
   0.00000000  1.96350000  5.89050000
  -0.00000000  3.92700000  0.00000000
  -0.00000000  5.89050000  1.96350000
   0.00000000  0.00000000  3.92700000
 


--------------------------------------------------------------------------------------------------------


 k-point  1 :   0.2500 0.1250 0.9167  plane waves:   12326
 k-point  2 :   0.5000 0.1250 0.7500  plane waves:   12292
 k-point  3 :   0.7500 0.1250 0.5833  plane waves:   12289
 k-point  4 :   0.0000 0.1250 0.4167  plane waves:   12312
 k-point  5 :   0.2500 0.1250 0.2500  plane waves:   12302
 k-point  6 :   0.5000 0.1250 0.0833  plane waves:   12296
 k-point  7 :   0.7500 0.1250 0.9167  plane waves:   12326
 k-point  8 :   0.0000 0.1250 0.7500  plane waves:   12307
 k-point  9 :   0.2500 0.1250 0.5833  plane waves:   12289
 k-point 10 :   0.5000 0.1250 0.4167  plane waves:   12300
 k-point 11 :   0.7500 0.1250 0.2500  plane waves:   12302
 k-point 12 :   0.0000 0.1250 0.0833  plane waves:   12297
 k-point 13 :   0.2500 0.3750 0.7500  plane waves:   12311
 k-point 14 :   0.5000 0.3750 0.5833  plane waves:   12310
 k-point 15 :   0.7500 0.3750 0.4167  plane waves:   12288
 k-point 16 :   0.0000 0.3750 0.2500  plane waves:   12295
 k-point 17 :   0.2500 0.3750 0.0833  plane waves:   12291
 k-point 18 :   0.5000 0.3750 0.9167  plane waves:   12298
 k-point 19 :   0.7500 0.3750 0.7500  plane waves:   12311
 k-point 20 :   0.0000 0.3750 0.5833  plane waves:   12306
 k-point 21 :   0.2500 0.3750 0.4167  plane waves:   12288
 k-point 22 :   0.5000 0.3750 0.2500  plane waves:   12284
 k-point 23 :   0.7500 0.3750 0.0833  plane waves:   12291
 k-point 24 :   0.0000 0.3750 0.9167  plane waves:   12325

 maximum number of plane-waves:     12326
 maximum index in each direction: 
   IXMAX=   14   IYMAX=   14   IZMAX=   14
   IXMIN=  -15   IYMIN=  -14   IZMIN=  -15

 NGX is ok and might be reduce to  60
 NGY is ok and might be reduce to  58
 NGZ is ok and might be reduce to  60

 total amount of memory used by VASP on root node  1692959. kBytes
========================================================================

   base      :      30000. kBytes
   nonl-proj :      48909. kBytes
   grid      :      92563. kBytes
   one-center:        497. kBytes
   wavefun   :    1520990. kBytes
 
 For storing wavefunctions 1450.20 MBYTES are necessary
 For predicting wavefunctions  141.64 MBYTES are necessary
 Broyden mixing: mesh for mixing (old mesh)
   NGX = 29   NGY = 29   NGZ = 29
  (NGX  =120   NGY  =120   NGZ  =120)
  gives a total of  24389 points

 initial charge density was supplied:
 charge density of overlapping atoms calculated
 number of electron     512.0000000 magnetization 
 keeping initial charge density in first step


--------------------------------------------------------------------------------------------------------


 Maximum index for augmentation-charges       138745 (set IRDMAX)


--------------------------------------------------------------------------------------------------------


 First call to EWALD:  gamma=   0.226
 Maximum number of real-space cells 3x 3x 3
 Maximum number of reciprocal cells 3x 3x 3

    FEWALD:  cpu time    0.01: real time    0.01


----------------------------------------- Iteration    1(   1)  ---------------------------------------


    POTLOK:  cpu time    2.02: real time    2.02
    SETDIJ:  cpu time    2.73: real time    2.73
     EDDAV:  cpu time 1214.26: real time 1214.35
       DOS:  cpu time    0.04: real time    0.04
    --------------------------------------------
      LOOP:  cpu time 1219.05: real time 1219.14

 eigenvalue-minimisations  : 14928
 total energy-change (2. order) : 0.7085558E+04  (-0.3011092E+05)
 number of electron     512.0000000 magnetization 
 augmentation part      512.0000000 magnetization 

 Free energy of the ion-electron system (eV)
  ---------------------------------------------------
  alpha Z        PSCENC =      4309.77481446
  Ewald energy   TEWEN  =    -68862.23829894
  -1/2 Hartree   DENC   =    -17896.79401706
  -exchange  EXHF       =         0.00000000
  -V(xc)+E(xc)   XCENC  =      2649.00743571
  PAW double counting   =     72255.69020719   -71333.34611920
  entropy T*S    EENTRO =        -0.02733374
  eigenvalues    EBANDS =      2074.02493231
  atomic energy  EATOM  =     83889.46633811
  ---------------------------------------------------
  free energy    TOTEN  =      7085.55795884 eV

  energy without entropy =     7085.58529258  energy(sigma->0) =     7085.57162571


--------------------------------------------------------------------------------------------------------




----------------------------------------- Iteration    1(   2)  ---------------------------------------


     EDDAV:  cpu time 1225.22: real time 1225.31
       DOS:  cpu time    0.03: real time    0.03
    --------------------------------------------
      LOOP:  cpu time 1225.26: real time 1225.39

 eigenvalue-minimisations  : 14736
 total energy-change (2. order) :-0.6829724E+04  (-0.6634664E+04)
 number of electron     512.0000000 magnetization 
 augmentation part      512.0000000 magnetization 

 Free energy of the ion-electron system (eV)
  ---------------------------------------------------
  alpha Z        PSCENC =      4309.77481446
  Ewald energy   TEWEN  =    -68862.23829894
  -1/2 Hartree   DENC   =    -17896.79401706
  -exchange  EXHF       =         0.00000000
  -V(xc)+E(xc)   XCENC  =      2649.00743571
  PAW double counting   =     72255.69020719   -71333.34611920
  entropy T*S    EENTRO =        -0.08998658
  eigenvalues    EBANDS =     -4755.63602164
  atomic energy  EATOM  =     83889.46633811
  ---------------------------------------------------
  free energy    TOTEN  =       255.83435205 eV

  energy without entropy =      255.92433864  energy(sigma->0) =      255.87934534


--------------------------------------------------------------------------------------------------------




----------------------------------------- Iteration    1(   3)  ---------------------------------------


     EDDAV:  cpu time 1271.77: real time 1271.86
       DOS:  cpu time    0.04: real time    0.04
    --------------------------------------------
      LOOP:  cpu time 1271.81: real time 1271.91

 eigenvalue-minimisations  : 15491
 total energy-change (2. order) :-0.4183648E+03  (-0.3778759E+03)
 number of electron     512.0000000 magnetization 
 augmentation part      512.0000000 magnetization 

 Free energy of the ion-electron system (eV)
  ---------------------------------------------------
  alpha Z        PSCENC =      4309.77481446
  Ewald energy   TEWEN  =    -68862.23829894
  -1/2 Hartree   DENC   =    -17896.79401706
  -exchange  EXHF       =         0.00000000
  -V(xc)+E(xc)   XCENC  =      2649.00743571
  PAW double counting   =     72255.69020719   -71333.34611920
  entropy T*S    EENTRO =        -0.37109231
  eigenvalues    EBANDS =     -5173.71969636
  atomic energy  EATOM  =     83889.46633811
  ---------------------------------------------------
  free energy    TOTEN  =      -162.53042839 eV

  energy without entropy =     -162.15933609  energy(sigma->0) =     -162.34488224


--------------------------------------------------------------------------------------------------------




----------------------------------------- Iteration    1(   4)  ---------------------------------------


     EDDAV:  cpu time 1277.38: real time 1277.51
       DOS:  cpu time    0.04: real time    0.04
    --------------------------------------------
      LOOP:  cpu time 1277.42: real time 1277.56

 eigenvalue-minimisations  : 15565
 total energy-change (2. order) :-0.1255597E+02  (-0.1239027E+02)
 number of electron     512.0000000 magnetization 
 augmentation part      512.0000000 magnetization 

 Free energy of the ion-electron system (eV)
  ---------------------------------------------------
  alpha Z        PSCENC =      4309.77481446
  Ewald energy   TEWEN  =    -68862.23829894
  -1/2 Hartree   DENC   =    -17896.79401706
  -exchange  EXHF       =         0.00000000
  -V(xc)+E(xc)   XCENC  =      2649.00743571
  PAW double counting   =     72255.69020719   -71333.34611920
  entropy T*S    EENTRO =        -0.37524715
  eigenvalues    EBANDS =     -5186.27150865
  atomic energy  EATOM  =     83889.46633811
  ---------------------------------------------------
  free energy    TOTEN  =      -175.08639553 eV

  energy without entropy =     -174.71114838  energy(sigma->0) =     -174.89877196


--------------------------------------------------------------------------------------------------------




----------------------------------------- Iteration    1(   5)  ---------------------------------------


     EDDAV:  cpu time 1274.69: real time 1274.78
       DOS:  cpu time    0.04: real time    0.04
    CHARGE:  cpu time   93.40: real time   93.40
    MIXING:  cpu time    0.03: real time    0.03
    --------------------------------------------
      LOOP:  cpu time 1368.16: real time 1368.27

 eigenvalue-minimisations  : 15536
 total energy-change (2. order) :-0.1357460E+00  (-0.1356852E+00)
 number of electron     512.0000025 magnetization 
 augmentation part      239.0762486 magnetization 

 Broyden mixing:
  rms(total) = 0.27511E+01    rms(broyden)= 0.27510E+01
  rms(prec ) = 0.34811E+01
  weight for this iteration     100.00

 Free energy of the ion-electron system (eV)
  ---------------------------------------------------
  alpha Z        PSCENC =      4309.77481446
  Ewald energy   TEWEN  =    -68862.23829894
  -1/2 Hartree   DENC   =    -17896.79401706
  -exchange  EXHF       =         0.00000000
  -V(xc)+E(xc)   XCENC  =      2649.00743571
  PAW double counting   =     72255.69020719   -71333.34611920
  entropy T*S    EENTRO =        -0.37532568
  eigenvalues    EBANDS =     -5186.40717610
  atomic energy  EATOM  =     83889.46633811
  ---------------------------------------------------
  free energy    TOTEN  =      -175.22214151 eV

  energy without entropy =     -174.84681583  energy(sigma->0) =     -175.03447867


--------------------------------------------------------------------------------------------------------




----------------------------------------- Iteration    1(   6)  ---------------------------------------


    POTLOK:  cpu time    2.00: real time    2.00
    SETDIJ:  cpu time    2.75: real time    2.75
     EDDAV:  cpu time 1270.32: real time 1270.42
       DOS:  cpu time    0.04: real time    0.04
    CHARGE:  cpu time   92.89: real time   92.90
    MIXING:  cpu time    0.03: real time    0.03
    --------------------------------------------
      LOOP:  cpu time 1368.04: real time 1368.19

 eigenvalue-minimisations  : 15429
 total energy-change (2. order) : 0.8251109E+01  (-0.3210949E+01)
 number of electron     512.0000026 magnetization 
 augmentation part      245.5779473 magnetization 

 Broyden mixing:
  rms(total) = 0.56761E+00    rms(broyden)= 0.56757E+00
  rms(prec ) = 0.60765E+00
  weight for this iteration     100.00

 eigenvalues of (default mixing * dielectric matrix)
  average eigenvalue GAMMA=   1.1158
  1.1158

 Free energy of the ion-electron system (eV)
  ---------------------------------------------------
  alpha Z        PSCENC =      4309.77481446
  Ewald energy   TEWEN  =    -68862.23829894
  -1/2 Hartree   DENC   =    -17349.29363898
  -exchange  EXHF       =         0.00000000
  -V(xc)+E(xc)   XCENC  =      2625.13026714
  PAW double counting   =     73962.88130931   -73100.97218313
  entropy T*S    EENTRO =        -0.39293782
  eigenvalues    EBANDS =     -5641.32670248
  atomic energy  EATOM  =     83889.46633811
  ---------------------------------------------------
  free energy    TOTEN  =      -166.97103234 eV

  energy without entropy =     -166.57809451  energy(sigma->0) =     -166.77456342


--------------------------------------------------------------------------------------------------------




----------------------------------------- Iteration    1(   7)  ---------------------------------------


    POTLOK:  cpu time    2.01: real time    2.01
    SETDIJ:  cpu time    2.74: real time    2.74
     EDDAV:  cpu time 1266.89: real time 1267.03
       DOS:  cpu time    0.04: real time    0.04
    CHARGE:  cpu time   92.92: real time   92.93
    MIXING:  cpu time    0.04: real time    0.04
    --------------------------------------------
      LOOP:  cpu time 1364.64: real time 1364.79

 eigenvalue-minimisations  : 15384
 total energy-change (2. order) : 0.9557790E-01  (-0.2633370E-01)
 number of electron     512.0000026 magnetization 
 augmentation part      245.4512081 magnetization 

 Broyden mixing:
  rms(total) = 0.33858E+00    rms(broyden)= 0.33857E+00
  rms(prec ) = 0.36319E+00
  weight for this iteration     100.00

 eigenvalues of (default mixing * dielectric matrix)
  average eigenvalue GAMMA=   1.7532
  0.9800  2.5264

 Free energy of the ion-electron system (eV)
  ---------------------------------------------------
  alpha Z        PSCENC =      4309.77481446
  Ewald energy   TEWEN  =    -68862.23829894
  -1/2 Hartree   DENC   =    -17341.64130617
  -exchange  EXHF       =         0.00000000
  -V(xc)+E(xc)   XCENC  =      2624.76379835
  PAW double counting   =     75006.20018808   -74155.32723700
  entropy T*S    EENTRO =        -0.39180641
  eigenvalues    EBANDS =     -5637.48194492
  atomic energy  EATOM  =     83889.46633811
  ---------------------------------------------------
  free energy    TOTEN  =      -166.87545444 eV

  energy without entropy =     -166.48364802  energy(sigma->0) =     -166.67955123


--------------------------------------------------------------------------------------------------------




----------------------------------------- Iteration    1(   8)  ---------------------------------------


    POTLOK:  cpu time    2.01: real time    2.01
    SETDIJ:  cpu time    2.75: real time    2.75
     EDDAV:  cpu time 1276.10: real time 1276.19
       DOS:  cpu time    0.04: real time    0.04
    CHARGE:  cpu time   93.26: real time   93.26
    MIXING:  cpu time    0.04: real time    0.04
    --------------------------------------------
      LOOP:  cpu time 1374.19: real time 1374.30

 eigenvalue-minimisations  : 15493
 total energy-change (2. order) : 0.3475352E-01  (-0.5226324E-02)
 number of electron     512.0000026 magnetization 
 augmentation part      245.4858080 magnetization 

 Broyden mixing:
  rms(total) = 0.57653E-01    rms(broyden)= 0.57651E-01
  rms(prec ) = 0.12164E+00
  weight for this iteration     100.00

 eigenvalues of (default mixing * dielectric matrix)
  average eigenvalue GAMMA=   1.2462
  2.5285  0.9802  0.2299

 Free energy of the ion-electron system (eV)
  ---------------------------------------------------
  alpha Z        PSCENC =      4309.77481446
  Ewald energy   TEWEN  =    -68862.23829894
  -1/2 Hartree   DENC   =    -17315.89184575
  -exchange  EXHF       =         0.00000000
  -V(xc)+E(xc)   XCENC  =      2623.61882667
  PAW double counting   =     76473.05848073   -75635.69465226
  entropy T*S    EENTRO =        -0.39110860
  eigenvalues    EBANDS =     -5648.54325532
  atomic energy  EATOM  =     83889.46633811
  ---------------------------------------------------
  free energy    TOTEN  =      -166.84070091 eV

  energy without entropy =     -166.44959231  energy(sigma->0) =     -166.64514661


--------------------------------------------------------------------------------------------------------




----------------------------------------- Iteration    1(   9)  ---------------------------------------


    POTLOK:  cpu time    1.99: real time    1.99
    SETDIJ:  cpu time    2.70: real time    2.70
     EDDAV:  cpu time 1265.98: real time 1266.11
       DOS:  cpu time    0.04: real time    0.04
    CHARGE:  cpu time   93.01: real time   93.02
    MIXING:  cpu time    0.04: real time    0.04
    --------------------------------------------
      LOOP:  cpu time 1363.77: real time 1363.97

 eigenvalue-minimisations  : 15664
 total energy-change (2. order) : 0.3314864E-02  (-0.8896003E-03)
 number of electron     512.0000026 magnetization 
 augmentation part      245.4888550 magnetization 

 Broyden mixing:
  rms(total) = 0.10304E-01    rms(broyden)= 0.10300E-01
  rms(prec ) = 0.18405E-01
  weight for this iteration     100.00

 eigenvalues of (default mixing * dielectric matrix)
  average eigenvalue GAMMA=   1.0794
  2.5271  0.9809  0.6002  0.2093

 Free energy of the ion-electron system (eV)
  ---------------------------------------------------
  alpha Z        PSCENC =      4309.77481446
  Ewald energy   TEWEN  =    -68862.23829894
  -1/2 Hartree   DENC   =    -17315.95701495
  -exchange  EXHF       =         0.00000000
  -V(xc)+E(xc)   XCENC  =      2623.62158667
  PAW double counting   =     76481.81365264   -75644.19221249
  entropy T*S    EENTRO =        -0.39117153
  eigenvalues    EBANDS =     -5648.73508001
  atomic energy  EATOM  =     83889.46633811
  ---------------------------------------------------
  free energy    TOTEN  =      -166.83738605 eV

  energy without entropy =     -166.44621452  energy(sigma->0) =     -166.64180028


--------------------------------------------------------------------------------------------------------




----------------------------------------- Iteration    1(  10)  ---------------------------------------


    POTLOK:  cpu time    2.00: real time    2.00
    SETDIJ:  cpu time    2.67: real time    2.67
     EDDAV:  cpu time 1365.62: real time 1365.72
       DOS:  cpu time    0.04: real time    0.04
    CHARGE:  cpu time   94.23: real time   94.24
    MIXING:  cpu time    0.04: real time    0.04
    --------------------------------------------
      LOOP:  cpu time 1464.60: real time 1464.73

 eigenvalue-minimisations  : 17229
 total energy-change (2. order) : 0.2227358E-04  (-0.9701160E-04)
 number of electron     512.0000026 magnetization 
 augmentation part      245.4921112 magnetization 

 Broyden mixing:
  rms(total) = 0.79580E-02    rms(broyden)= 0.79572E-02
  rms(prec ) = 0.12813E-01
  weight for this iteration     100.00

 eigenvalues of (default mixing * dielectric matrix)
  average eigenvalue GAMMA=   1.0268
  2.5231  1.1829  0.9762  0.2573  0.1944

 Free energy of the ion-electron system (eV)
  ---------------------------------------------------
  alpha Z        PSCENC =      4309.77481446
  Ewald energy   TEWEN  =    -68862.23829894
  -1/2 Hartree   DENC   =    -17316.27252313
  -exchange  EXHF       =         0.00000000
  -V(xc)+E(xc)   XCENC  =      2623.63546266
  PAW double counting   =     76488.28445498   -75650.14546612
  entropy T*S    EENTRO =        -0.39114722
  eigenvalues    EBANDS =     -5648.95099857
  atomic energy  EATOM  =     83889.46633811
  ---------------------------------------------------
  free energy    TOTEN  =      -166.83736377 eV

  energy without entropy =     -166.44621655  energy(sigma->0) =     -166.64179016
