 vasp.5.3.3 18Dez12 (build Jun 21 2016 14:15:03) complex                        
  
 executed on             LinuxIFC date 2017.10.10  16:16:28
 serial version


--------------------------------------------------------------------------------------------------------


 INCAR:
 POTCAR:    PAW_PBE Pd_pv 28Jan2005               
 POTCAR:    PAW_PBE Pd_pv 28Jan2005               
   VRHFIN =Pd: 4p5s4d                                                           
   LEXCH  = PE                                                                  
   EATOM  =  2621.5550 eV,  192.6789 Ry                                         
                                                                                
   TITEL  = PAW_PBE Pd_pv 28Jan2005                                             
   LULTRA =        F    use ultrasoft PP ?                                      
   IUNSCR =        1    unscreen: 0-lin 1-nonlin 2-no                           
   RPACOR =    2.250    partial core radius                                     
   POMASS =  106.420; ZVAL   =   16.000    mass and valenz                      
   RCORE  =    2.400    outmost cutoff radius                                   
   RWIGS  =    2.300; RWIGS  =    1.217    wigner-seitz radius (au A)           
   ENMAX  =  250.925; ENMIN  =  188.194 eV                                      
   ICORE  =        3    local potential                                         
   LCOR   =        T    correct aug charges                                     
   LPAW   =        T    paw PP                                                  
   EAUG   =  473.067                                                            
   DEXC   =    0.000                                                            
   RMAX   =    2.449    core radius for proj-oper                               
   RAUG   =    1.300    factor for augmentation sphere                          
   RDEP   =    2.405    radius for radial grids                                 
   RDEPT  =    1.966    core radius for aug-charge                              
                                                                                
   Atomic configuration                                                         
   11 entries                                                                   
     n  l   j            E        occ.                                          
     1  0  0.50    -24164.6632   2.0000                                         
     2  0  0.50     -3530.9218   2.0000                                         
     2  1  1.50     -3165.6822   6.0000                                         
     3  0  0.50      -639.4578   2.0000                                         
     3  1  1.50      -519.4532   6.0000                                         
     3  2  2.50      -328.9758  10.0000                                         
     4  0  0.50       -88.7014   2.0000                                         
     4  1  1.50       -54.4541   6.0000                                         
     4  2  2.50        -6.6878   9.0000                                         
     5  0  0.50        -4.3543   1.0000                                         
     4  3  2.50        -1.3606   0.0000                                         
   Description                                                                  
     l       E           TYP  RCUT    TYP  RCUT                                 
     1    -54.4540524     23  2.100                                             
     1      4.0817478     23  2.100                                             
     2     -6.6878326     23  2.400                                             
     2     -4.0817478     23  2.400                                             
     0     -4.3542962     23  2.400                                             
     0     13.6058260     23  2.400                                             
     3     -5.4423304     23  2.400                                             
  local pseudopotential read in
  partial core-charges read in
  partial kinetic energy density read in
  atomic valenz-charges read in
  non local Contribution for L=           1  read in
    real space projection operators read in
  non local Contribution for L=           1  read in
    real space projection operators read in
  non local Contribution for L=           2  read in
    real space projection operators read in
  non local Contribution for L=           2  read in
    real space projection operators read in
  non local Contribution for L=           0  read in
    real space projection operators read in
  non local Contribution for L=           0  read in
    real space projection operators read in
    PAW grid and wavefunctions read in
 
   number of l-projection  operators is LMAX  =           6
   number of lm-projection operators is LMMAX =          18
 
  PAW_PBE Pd_pv 28Jan2005               :
 energy of atom  1       EATOM=-2621.5550
 kinetic energy error for atom=    0.0092 (will be added to EATOM!!)
 
 
 POSCAR: Pd                                      
  positions in cartesian coordinates
  No initial velocities read in
 exchange correlation table for  LEXCH =        8
   RHO(1)=    0.500       N(1)  =     2000
   RHO(2)=  100.500       N(2)  =     4000
 


--------------------------------------------------------------------------------------------------------


 ion  position               nearest neighbor table
   1  0.001  0.000  0.000-   5 2.77   9 2.77   2 2.77   8 2.77  12 2.77  15 2.78  15 2.78   8 2.78
                            12 2.78   4 2.78  11 2.79   7 2.79
   2  0.750  0.250  0.250-   1 2.77   3 2.78   6 2.78   8 2.78   9 2.78  16 2.78   5 2.78  16 2.78
                             5 2.78   9 2.78  10 2.78  12 2.78
   3  0.500  0.500  0.500-   2 2.78   4 2.78   5 2.78   7 2.78  10 2.78  13 2.78   6 2.78  13 2.78
                             6 2.78  10 2.78   9 2.78  11 2.78
   4  0.250  0.750  0.750-   3 2.78   6 2.78   8 2.78  11 2.78  14 2.78   7 2.78  14 2.78   7 2.78
                            11 2.78  10 2.78  12 2.78   1 2.78
   5  0.250  0.750  0.250-   1 2.77   3 2.78   6 2.78   8 2.78   9 2.78  16 2.78   2 2.78   9 2.78
                             2 2.78  16 2.78  13 2.78  15 2.78
   6  0.000  0.000  0.500-   2 2.78   4 2.78   5 2.78   7 2.78  10 2.78  13 2.78   3 2.78  10 2.78
                             3 2.78  13 2.78  14 2.78  16 2.78
   7  0.750  0.250  0.750-   3 2.78   6 2.78   8 2.78  11 2.78  14 2.78   4 2.78  11 2.78   4 2.78
                            14 2.78  13 2.78  15 2.78   1 2.79
   8  0.500  0.500  0.000-   1 2.77   2 2.78   4 2.78   5 2.78   7 2.78  12 2.78  15 2.78  12 2.78
                            15 2.78  14 2.78  16 2.78   1 2.78
   9  0.250  0.250  0.750-   1 2.77  10 2.78  12 2.78  13 2.78  15 2.78   2 2.78   5 2.78   5 2.78
                            16 2.78   2 2.78  16 2.78   3 2.78
  10  0.000  0.500  0.000-   9 2.78  11 2.78  14 2.78  16 2.78   3 2.78   6 2.78   6 2.78  13 2.78
                             3 2.78  13 2.78   2 2.78   4 2.78
  11  0.750  0.750  0.250-  10 2.78  12 2.78  13 2.78  15 2.78   4 2.78   7 2.78   7 2.78  14 2.78
                             4 2.78  14 2.78   3 2.78   1 2.79
  12  0.500  0.000  0.500-   1 2.77   9 2.78  11 2.78  14 2.78  16 2.78   8 2.78   8 2.78  15 2.78
                            15 2.78   2 2.78   4 2.78   1 2.78
  13  0.500  0.000  0.000-   9 2.78  11 2.78  14 2.78  16 2.78   3 2.78   6 2.78   3 2.78  10 2.78
                             6 2.78  10 2.78   5 2.78   7 2.78
  14  0.250  0.250  0.250-  10 2.78  12 2.78  13 2.78  15 2.78   4 2.78   7 2.78   4 2.78  11 2.78
                             7 2.78  11 2.78   6 2.78   8 2.78
  15  0.000  0.500  0.500-   9 2.78  11 2.78  14 2.78  16 2.78   8 2.78  12 2.78   8 2.78  12 2.78
                             5 2.78   7 2.78   1 2.78   1 2.78
  16  0.750  0.750  0.750-  10 2.78  12 2.78  13 2.78  15 2.78   2 2.78   5 2.78   2 2.78   9 2.78
                             5 2.78   9 2.78   6 2.78   8 2.78
 

IMPORTANT INFORMATION: All symmetrisations will be switched off!
NOSYMM: (Re-)initialisation of all symmetry stuff for point group C_1.

 
 
 KPOINTS: Server version 2017.05.18. K-point grid 
  k-points in reciprocal lattice
Space group operators:
 irot       det(A)        alpha          n_x          n_y          n_z        tau_x        tau_y        tau_z
    1     1.000000     0.000000     1.000000     0.000000     0.000000     0.000000     0.000000     0.000000


--------------------------------------------------------------------------------------------------------




 Dimension of arrays:
   k-points           NKPTS =     47   k-points in BZ     NKDIM =     47   number of bands    NBANDS=    153
   number of dos      NEDOS =    301   number of ions     NIONS =     16
   non local maximal  LDIM  =      6   non local SUM 2l+1 LMDIM =     18
   total plane-waves  NPLWV = 343000
   max r-space proj   IRMAX =      1   max aug-charges    IRDMAX= 453645
   dimension x,y,z NGX =    70 NGY =   70 NGZ =   70
   dimension x,y,z NGXF=   140 NGYF=  140 NGZF=  140
   support grid    NGXF=   280 NGYF=  280 NGZF=  280
   ions per type =              16
 NGX,Y,Z   is equivalent  to a cutoff of  12.10, 12.10, 12.10 a.u.
 NGXF,Y,Z  is equivalent  to a cutoff of  24.20, 24.20, 24.20 a.u.


 I would recommend the setting:
   dimension x,y,z NGX =    70 NGY =   70 NGZ =   70
 SYSTEM =  unknown system                          
 POSCAR =  Pd                                      

 Startparameter for this run:
   NWRITE =      2    write-flag & timer
   PREC   = a         normal or accurate (medium, high low for compatibility)
   ISTART =      0    job   : 0-new  1-cont  2-samecut
   ICHARG =      2    charge: 1-file 2-atom 10-const
   ISPIN  =      1    spin polarized calculation?
   LNONCOLLINEAR =      F non collinear calculations
   LSORBIT =      F    spin-orbit coupling
   INIWAV =      1    electr: 0-lowe 1-rand  2-diag
   LASPH  =      F    aspherical Exc in radial PAW
   METAGGA=      F    non-selfconsistent MetaGGA calc.

 Electronic Relaxation 1
   ENCUT  =  500.0 eV  36.75 Ry    6.06 a.u.  17.54 17.54 17.54*2*pi/ulx,y,z
   ENINI  =  500.0     initial cutoff
   ENAUG  =  473.1 eV  augmentation charge cutoff
   NELM   =     60;   NELMIN=  2; NELMDL= -5     # of ELM steps 
   EDIFF  = 0.1E-07   stopping-criterion for ELM
   LREAL  =      F    real-space projection
   NLSPLINE    = F    spline interpolate recip. space projectors
   LCOMPAT=      F    compatible to vasp.4.4
   GGA_COMPAT  = T    GGA compatible to vasp.4.4-vasp.4.6
   LMAXPAW     = -100 max onsite density
   LMAXMIX     =    2 max onsite mixed and CHGCAR
   VOSKOWN=      0    Vosko Wilk Nusair interpolation
   ROPT   =    0.00000
 Ionic relaxation
   EDIFFG = 0.1E-06   stopping-criterion for IOM
   NSW    =      0    number of steps for IOM
   NBLOCK =      1;   KBLOCK =      1    inner block; outer block 
   IBRION =     -1    ionic relax: 0-MD 1-quasi-New 2-CG
   NFREE  =      0    steps in history (QN), initial steepest desc. (CG)
   ISIF   =      2    stress and relaxation
   IWAVPR =      0    prediction:  0-non 1-charg 2-wave 3-comb
   ISYM   =      0    0-nonsym 1-usesym 2-fastsym
   LCORR  =      T    Harris-Foulkes like correction to forces

   POTIM  = 0.5000    time-step for ionic-motion
   TEIN   =    0.0    initial temperature
   TEBEG  =    0.0;   TEEND  =   0.0 temperature during run
   SMASS  =  -3.00    Nose mass-parameter (am)
   estimated Nose-frequenzy (Omega)   =  0.10E-29 period in steps =****** mass=  -0.211E-26a.u.
   SCALEE = 1.0000    scale energy and forces
   NPACO  =    256;   APACO  = 16.0  distance and # of slots for P.C.
   PSTRESS=    0.0 pullay stress

  Mass of Ions in am
   POMASS = 106.42
  Ionic Valenz
   ZVAL   =  16.00
  Atomic Wigner-Seitz radii
   RWIGS  =  -1.00
  virtual crystal weights 
   VCA    =   1.00
   NELECT =     256.0000    total number of electrons
   NUPDOWN=      -1.0000    fix difference up-down

 DOS related values:
   EMIN   =  10.00;   EMAX   =-10.00  energy-range for DOS
   EFERMI =   0.00
   ISMEAR =     0;   SIGMA  =   0.10  broadening in eV -4-tet -1-fermi 0-gaus

 Electronic relaxation 2 (details)
   IALGO  =     38    algorithm
   LDIAG  =      T    sub-space diagonalisation (order eigenvalues)
   LSUBROT=      T    optimize rotation matrix (better conditioning)
   TURBO    =      0    0=normal 1=particle mesh
   IRESTART =      0    0=no restart 2=restart with 2 vectors
   NREBOOT  =      0    no. of reboots
   NMIN     =      0    reboot dimension
   EREF     =   0.00    reference energy to select bands
   IMIX   =      4    mixing-type and parameters
     AMIX     =   0.40;   BMIX     =  1.00
     AMIX_MAG =   1.60;   BMIX_MAG =  1.00
     AMIN     =   0.10
     WC   =   100.;   INIMIX=   1;  MIXPRE=   1;  MAXMIX= -45

 Intra band minimization:
   WEIMIN = 0.0000     energy-eigenvalue tresh-hold
   EBREAK =  0.16E-10  absolut break condition
   DEPER  =   0.30     relativ break condition  

   TIME   =   0.40     timestep for ELM

  volume/ion in A,a.u.               =      15.14       102.17
  Fermi-wavevector in a.u.,A,eV,Ry     =   1.667531  3.151177 37.833172  2.780660
  Thomas-Fermi vector in A             =   2.753537
 
 Write flags
   LWAVE  =      F    write WAVECAR
   LCHARG =      T    write CHGCAR
   LVTOT  =      F    write LOCPOT, total local potential
   LVHAR  =      F    write LOCPOT, Hartree potential only
   LELF   =      F    write electronic localiz. function (ELF)
   LORBIT =      0    0 simple, 1 ext, 2 COOP (PROOUT)


 Dipole corrections
   LMONO  =      F    monopole corrections only (constant potential shift)
   LDIPOL =      F    correct potential (dipole corrections)
   IDIPOL =      0    1-x, 2-y, 3-z, 4-all directions 
   EPSILON=  1.0000000 bulk dielectric constant

 Exchange correlation treatment:
   GGA     =    --    GGA type
   LEXCH   =     8    internal setting for exchange type
   VOSKOWN=      0    Vosko Wilk Nusair interpolation
   LHFCALC =     F    Hartree Fock is set to
   LHFONE  =     F    Hartree Fock one center treatment
   AEXX    =    0.0000 exact exchange contribution

 Linear response parameters
   LEPSILON=     F    determine dielectric tensor
   LRPA    =     F    only Hartree local field effects (RPA)
   LNABLA  =     F    use nabla operator in PAW spheres
   LVEL    =     F    velocity operator in full k-point grid
   LINTERFAST=   F  fast interpolation
   KINTER  =     0    interpolate to denser k-point grid
   CSHIFT  =0.1000    complex shift for real part using Kramers Kronig
   OMEGAMAX=  -1.0    maximum frequency
   DEG_THRESHOLD= 0.2000000E-02 threshold for treating states as degnerate
   RTIME   =    0.100 relaxation time in fs

 Orbital magnetization related:
   ORBITALMAG=     F  switch on orbital magnetization
   LCHIMAG   =     F  perturbation theory with respect to B field
   DQ        =  0.001000  dq finite difference perturbation B field



--------------------------------------------------------------------------------------------------------


 Static calculation
 charge density and potential will be updated during run
 non-spin polarized calculation
 Variant of blocked Davidson
 Davidson routine will perform the subspace rotation
 perform sub-space diagonalisation
    after iterative eigenvector-optimisation
 modified Broyden-mixing scheme, WC =      100.0
 initial mixing is a Kerker type mixing with AMIX =  0.4000 and BMIX =      1.0000
 Hartree-type preconditioning will be used
 using additional bands           25
 reciprocal scheme for non local part
 use partial core corrections
 calculate Harris-corrections to forces 
   (improved forces if not selfconsistent)
 use gradient corrections 
 use of overlap-Matrix (Vanderbilt PP)
 Gauss-broadening in eV      SIGMA  =   0.10


--------------------------------------------------------------------------------------------------------


  energy-cutoff  :      500.00
  volume of cell :      242.24
      direct lattice vectors                 reciprocal lattice vectors
     7.854000000  3.927000000  3.927000000     0.190985485 -0.063661828 -0.063661828
     3.927000000  7.854000000  3.927000000    -0.063661828  0.190985485 -0.063661828
     3.927000000  3.927000000  7.854000000    -0.063661828 -0.063661828  0.190985485

  length of vectors
     9.619146220  9.619146220  9.619146220     0.211142398  0.211142398  0.211142398


 
 k-points in units of 2pi/SCALE and weight: Server version 2017.05.18. K-point grid 
  -0.09718588  0.11140820  0.10734468       0.021
  -0.04097384  0.01591546  0.09583137       0.021
  -0.04842362  0.11140820  0.02065623       0.021
   0.00778842  0.01591546  0.00914292       0.021
  -0.06332320  0.04774637  0.12495327       0.021
  -0.00711116 -0.04774637  0.11343996       0.021
  -0.01456095  0.04774637  0.03826482       0.021
  -0.02201074  0.14323911 -0.03691032       0.021
  -0.02946053 -0.01591546  0.14256186       0.021
  -0.03691032  0.07957729  0.06738672       0.021
   0.01930172 -0.01591546  0.05587341       0.021
   0.01185194  0.07957729 -0.01930172       0.021
   0.00440215 -0.07957729  0.16017045       0.021
  -0.00304764  0.01591546  0.08499531       0.021
  -0.01049743  0.11140820  0.00982018       0.021
   0.04571461  0.01591546 -0.00169313       0.021
  -0.02539701  0.04774637  0.11411721       0.021
   0.03081503 -0.04774637  0.10260390       0.021
   0.02336525  0.04774637  0.02742877       0.021
   0.01591546  0.14323911 -0.04774637       0.021
   0.07212750  0.04774637 -0.05925968       0.021
   0.00101588  0.07957729  0.05655067       0.021
   0.05722792 -0.01591546  0.04503736       0.021
   0.04977813  0.07957729 -0.03013778       0.021
   0.10599017 -0.01591546 -0.04165109       0.021
   0.03487855  0.01591546  0.07415926       0.021
   0.02742877  0.11140820 -0.00101588       0.021
   0.08364081  0.01591546 -0.01252919       0.021
   0.07619102  0.11140820 -0.08770433       0.021
   0.06874123 -0.04774637  0.09176785       0.021
   0.06129144  0.04774637  0.01659271       0.021
   0.11750348 -0.04774637  0.00507940       0.021
   0.11005369  0.04774637 -0.07009574       0.021
   0.03894208  0.07957729  0.04571461       0.021
   0.09515412 -0.01591546  0.03420130       0.021
   0.08770433  0.07957729 -0.04097384       0.021
   0.14391637 -0.01591546 -0.05248715       0.021
   0.07280475  0.01591546  0.06332320       0.021
   0.12901679 -0.07957729  0.05180989       0.021
   0.12156700  0.01591546 -0.02336525       0.021
   0.11411721  0.11140820 -0.09854038       0.021
   0.10666743 -0.04774637  0.08093179       0.021
   0.09921764  0.04774637  0.00575665       0.021
   0.08973609 -0.01591546  0.07212750       0.021
   0.08228630  0.07957729 -0.00304764       0.021
   0.13849834 -0.01591546 -0.01456095       0.021
   0.13104855  0.07957729 -0.08973609       0.021
 
 k-points in reciprocal lattice and weights: Server version 2017.05.18. K-point grid 
   0.09574468  0.91489362  0.89893617       0.021
   0.11702128  0.34042553  0.65425532       0.021
   0.13829787  0.76595745  0.40957447       0.021
   0.15957447  0.19148936  0.16489362       0.021
   0.18085106  0.61702128  0.92021277       0.021
   0.20212766  0.04255319  0.67553191       0.021
   0.22340426  0.46808511  0.43085106       0.021
   0.24468085  0.89361702  0.18617021       0.021
   0.26595745  0.31914894  0.94148936       0.021
   0.28723404  0.74468085  0.69680851       0.021
   0.30851064  0.17021277  0.45212766       0.021
   0.32978723  0.59574468  0.20744681       0.021
   0.35106383  0.02127660  0.96276596       0.021
   0.37234043  0.44680851  0.71808511       0.021
   0.39361702  0.87234043  0.47340426       0.021
   0.41489362  0.29787234  0.22872340       0.021
   0.43617021  0.72340426  0.98404255       0.021
   0.45744681  0.14893617  0.73936170       0.021
   0.47872340  0.57446809  0.49468085       0.021
   0.50000000  1.00000000  0.25000000       0.021
   0.52127660  0.42553191  0.00531915       0.021
   0.54255319  0.85106383  0.76063830       0.021
   0.56382979  0.27659574  0.51595745       0.021
   0.58510638  0.70212766  0.27127660       0.021
   0.60638298  0.12765957  0.02659574       0.021
   0.62765957  0.55319149  0.78191489       0.021
   0.64893617  0.97872340  0.53723404       0.021
   0.67021277  0.40425532  0.29255319       0.021
   0.69148936  0.82978723  0.04787234       0.021
   0.71276596  0.25531915  0.80319149       0.021
   0.73404255  0.68085106  0.55851064       0.021
   0.75531915  0.10638298  0.31382979       0.021
   0.77659574  0.53191489  0.06914894       0.021
   0.79787234  0.95744681  0.82446809       0.021
   0.81914894  0.38297872  0.57978723       0.021
   0.84042553  0.80851064  0.33510638       0.021
   0.86170213  0.23404255  0.09042553       0.021
   0.88297872  0.65957447  0.84574468       0.021
   0.90425532  0.08510638  0.60106383       0.021
   0.92553191  0.51063830  0.35638298       0.021
   0.94680851  0.93617021  0.11170213       0.021
   0.96808511  0.36170213  0.86702128       0.021
   0.98936170  0.78723404  0.62234043       0.021
   0.92553191  0.51063830  0.85638298       0.021
   0.94680851  0.93617021  0.61170213       0.021
   0.96808511  0.36170213  0.36702128       0.021
   0.98936170  0.78723404  0.12234043       0.021
 
 position of ions in fractional coordinates (direct lattice) 
   0.00103959  0.00000000  0.00000000
   0.75000000  0.25000000  0.25000000
   0.50000000  0.50000000  0.50000000
   0.25000000  0.75000000  0.75000000
   0.25000000  0.75000000  0.25000000
   0.00000000  0.00000000  0.50000000
   0.75000000  0.25000000  0.75000000
   0.50000000  0.50000000  0.00000000
   0.25000000  0.25000000  0.75000000
   0.00000000  0.50000000  0.00000000
   0.75000000  0.75000000  0.25000000
   0.50000000  0.00000000  0.50000000
   0.50000000  0.00000000  0.00000000
   0.25000000  0.25000000  0.25000000
   0.00000000  0.50000000  0.50000000
   0.75000000  0.75000000  0.75000000
 
 position of ions in cartesian coordinates  (Angst):
   0.00816497  0.00408248  0.00408248
   7.85400000  5.89050000  5.89050000
   7.85400000  7.85400000  7.85400000
   7.85400000  9.81750000  9.81750000
   5.89050000  7.85400000  5.89050000
   1.96350000  1.96350000  3.92700000
   9.81750000  7.85400000  9.81750000
   5.89050000  5.89050000  3.92700000
   5.89050000  5.89050000  7.85400000
   1.96350000  3.92700000  1.96350000
   9.81750000  9.81750000  7.85400000
   5.89050000  3.92700000  5.89050000
   3.92700000  1.96350000  1.96350000
   3.92700000  3.92700000  3.92700000
   3.92700000  5.89050000  5.89050000
  11.78100000 11.78100000 11.78100000
 


--------------------------------------------------------------------------------------------------------


 k-point  1 :   0.0957 0.9149 0.8989  plane waves:    6155
 k-point  2 :   0.1170 0.3404 0.6543  plane waves:    6168
 k-point  3 :   0.1383 0.7660 0.4096  plane waves:    6165
 k-point  4 :   0.1596 0.1915 0.1649  plane waves:    6146
 k-point  5 :   0.1809 0.6170 0.9202  plane waves:    6165
 k-point  6 :   0.2021 0.0426 0.6755  plane waves:    6160
 k-point  7 :   0.2234 0.4681 0.4309  plane waves:    6126
 k-point  8 :   0.2447 0.8936 0.1862  plane waves:    6151
 k-point  9 :   0.2660 0.3191 0.9415  plane waves:    6149
 k-point 10 :   0.2872 0.7447 0.6968  plane waves:    6154
 k-point 11 :   0.3085 0.1702 0.4521  plane waves:    6132
 k-point 12 :   0.3298 0.5957 0.2074  plane waves:    6138
 k-point 13 :   0.3511 0.0213 0.9628  plane waves:    6149
 k-point 14 :   0.3723 0.4468 0.7181  plane waves:    6143
 k-point 15 :   0.3936 0.8723 0.4734  plane waves:    6142
 k-point 16 :   0.4149 0.2979 0.2287  plane waves:    6139
 k-point 17 :   0.4362 0.7234 0.9840  plane waves:    6155
 k-point 18 :   0.4574 0.1489 0.7394  plane waves:    6176
 k-point 19 :   0.4787 0.5745 0.4947  plane waves:    6116
 k-point 20 :   0.5000 1.0000 0.2500  plane waves:    6153
 k-point 21 :   0.5213 0.4255 0.0053  plane waves:    6156
 k-point 22 :   0.5426 0.8511 0.7606  plane waves:    6145
 k-point 23 :   0.5638 0.2766 0.5160  plane waves:    6141
 k-point 24 :   0.5851 0.7021 0.2713  plane waves:    6147
 k-point 25 :   0.6064 0.1277 0.0266  plane waves:    6162
 k-point 26 :   0.6277 0.5532 0.7819  plane waves:    6126
 k-point 27 :   0.6489 0.9787 0.5372  plane waves:    6145
 k-point 28 :   0.6702 0.4043 0.2926  plane waves:    6149
 k-point 29 :   0.6915 0.8298 0.0479  plane waves:    6144
 k-point 30 :   0.7128 0.2553 0.8032  plane waves:    6165
 k-point 31 :   0.7340 0.6809 0.5585  plane waves:    6133
 k-point 32 :   0.7553 0.1064 0.3138  plane waves:    6164
 k-point 33 :   0.7766 0.5319 0.0691  plane waves:    6165
 k-point 34 :   0.7979 0.9574 0.8245  plane waves:    6143
 k-point 35 :   0.8191 0.3830 0.5798  plane waves:    6142
 k-point 36 :   0.8404 0.8085 0.3351  plane waves:    6158
 k-point 37 :   0.8617 0.2340 0.0904  plane waves:    6156
 k-point 38 :   0.8830 0.6596 0.8457  plane waves:    6146
 k-point 39 :   0.9043 0.0851 0.6011  plane waves:    6149
 k-point 40 :   0.9255 0.5106 0.3564  plane waves:    6157
 k-point 41 :   0.9468 0.9362 0.1117  plane waves:    6148
 k-point 42 :   0.9681 0.3617 0.8670  plane waves:    6158
 k-point 43 :   0.9894 0.7872 0.6223  plane waves:    6142
 k-point 44 :   0.9255 0.5106 0.8564  plane waves:    6156
 k-point 45 :   0.9468 0.9362 0.6117  plane waves:    6154
 k-point 46 :   0.9681 0.3617 0.3670  plane waves:    6145
 k-point 47 :   0.9894 0.7872 0.1223  plane waves:    6148

 maximum number of plane-waves:      6176
 maximum index in each direction: 
   IXMAX=   17   IYMAX=   17   IZMAX=   17
   IXMIN=  -18   IYMIN=  -18   IZMIN=  -18

 WARNING: aliasing errors must be expected set NGX to  72 to avoid them
 WARNING: aliasing errors must be expected set NGY to  72 to avoid them
 WARNING: aliasing errors must be expected set NGZ to  72 to avoid them
 aliasing errors are usually negligible using standard VASP settings
 and one can safely disregard these warnings

 total amount of memory used by VASP on root node   964113. kBytes
========================================================================

   base      :      30000. kBytes
   nonl-proj :      43380. kBytes
   grid      :     146764. kBytes
   one-center:        248. kBytes
   wavefun   :     743721. kBytes
 
 For storing wavefunctions  707.54 MBYTES are necessary
 For predicting wavefunctions   54.33 MBYTES are necessary
 Broyden mixing: mesh for mixing (old mesh)
   NGX = 35   NGY = 35   NGZ = 35
  (NGX  =140   NGY  =140   NGZ  =140)
  gives a total of  42875 points

 initial charge density was supplied:
 charge density of overlapping atoms calculated
 number of electron     256.0000000 magnetization 
 keeping initial charge density in first step


--------------------------------------------------------------------------------------------------------


 Maximum index for augmentation-charges       440157 (set IRDMAX)


--------------------------------------------------------------------------------------------------------


 First call to EWALD:  gamma=   0.284
 Maximum number of real-space cells 3x 3x 3
 Maximum number of reciprocal cells 4x 4x 4

    FEWALD:  cpu time    0.00: real time    0.00


----------------------------------------- Iteration    1(   1)  ---------------------------------------


    POTLOK:  cpu time    3.28: real time    3.28
    SETDIJ:  cpu time    5.09: real time    5.09
     EDDAV:  cpu time 1463.50: real time 1463.61
       DOS:  cpu time    0.03: real time    0.03
    --------------------------------------------
      LOOP:  cpu time 1471.90: real time 1472.01

 eigenvalue-minimisations  : 14702
 total energy-change (2. order) : 0.3477200E+04  (-0.1517321E+05)
 number of electron     256.0000000 magnetization 
 augmentation part      256.0000000 magnetization 

 Free energy of the ion-electron system (eV)
  ---------------------------------------------------
  alpha Z        PSCENC =      2154.88740723
  Ewald energy   TEWEN  =    -34431.08980821
  -1/2 Hartree   DENC   =     -8948.42295661
  -exchange  EXHF       =         0.00000000
  -V(xc)+E(xc)   XCENC  =      1324.50380981
  PAW double counting   =     36127.84510360   -35666.67305960
  entropy T*S    EENTRO =        -0.01950898
  eigenvalues    EBANDS =       971.43587685
  atomic energy  EATOM  =     41944.73316905
  ---------------------------------------------------
  free energy    TOTEN  =      3477.20003313 eV

  energy without entropy =     3477.21954211  energy(sigma->0) =     3477.20978762


--------------------------------------------------------------------------------------------------------




----------------------------------------- Iteration    1(   2)  ---------------------------------------


     EDDAV:  cpu time 1455.76: real time 1455.87
       DOS:  cpu time    0.03: real time    0.03
    --------------------------------------------
      LOOP:  cpu time 1455.80: real time 1455.92

 eigenvalue-minimisations  : 14398
 total energy-change (2. order) :-0.3359339E+04  (-0.3261677E+04)
 number of electron     256.0000000 magnetization 
 augmentation part      256.0000000 magnetization 

 Free energy of the ion-electron system (eV)
  ---------------------------------------------------
  alpha Z        PSCENC =      2154.88740723
  Ewald energy   TEWEN  =    -34431.08980821
  -1/2 Hartree   DENC   =     -8948.42295661
  -exchange  EXHF       =         0.00000000
  -V(xc)+E(xc)   XCENC  =      1324.50380981
  PAW double counting   =     36127.84510360   -35666.67305960
  entropy T*S    EENTRO =        -0.04164347
  eigenvalues    EBANDS =     -2387.88117627
  atomic energy  EATOM  =     41944.73316905
  ---------------------------------------------------
  free energy    TOTEN  =       117.86084552 eV

  energy without entropy =      117.90248900  energy(sigma->0) =      117.88166726


--------------------------------------------------------------------------------------------------------




----------------------------------------- Iteration    1(   3)  ---------------------------------------


     EDDAV:  cpu time 1516.61: real time 1516.72
       DOS:  cpu time    0.04: real time    0.04
    --------------------------------------------
      LOOP:  cpu time 1516.65: real time 1516.77

 eigenvalue-minimisations  : 15279
 total energy-change (2. order) :-0.1995777E+03  (-0.1807326E+03)
 number of electron     256.0000000 magnetization 
 augmentation part      256.0000000 magnetization 

 Free energy of the ion-electron system (eV)
  ---------------------------------------------------
  alpha Z        PSCENC =      2154.88740723
  Ewald energy   TEWEN  =    -34431.08980821
  -1/2 Hartree   DENC   =     -8948.42295661
  -exchange  EXHF       =         0.00000000
  -V(xc)+E(xc)   XCENC  =      1324.50380981
  PAW double counting   =     36127.84510360   -35666.67305960
  entropy T*S    EENTRO =        -0.21007501
  eigenvalues    EBANDS =     -2587.29043603
  atomic energy  EATOM  =     41944.73316905
  ---------------------------------------------------
  free energy    TOTEN  =       -81.71684577 eV

  energy without entropy =      -81.50677076  energy(sigma->0) =      -81.61180827


--------------------------------------------------------------------------------------------------------




----------------------------------------- Iteration    1(   4)  ---------------------------------------


     EDDAV:  cpu time 1524.33: real time 1524.45
       DOS:  cpu time    0.04: real time    0.04
    --------------------------------------------
      LOOP:  cpu time 1524.37: real time 1524.50

 eigenvalue-minimisations  : 15388
 total energy-change (2. order) :-0.5773081E+01  (-0.5708998E+01)
 number of electron     256.0000000 magnetization 
 augmentation part      256.0000000 magnetization 

 Free energy of the ion-electron system (eV)
  ---------------------------------------------------
  alpha Z        PSCENC =      2154.88740723
  Ewald energy   TEWEN  =    -34431.08980821
  -1/2 Hartree   DENC   =     -8948.42295661
  -exchange  EXHF       =         0.00000000
  -V(xc)+E(xc)   XCENC  =      1324.50380981
  PAW double counting   =     36127.84510360   -35666.67305960
  entropy T*S    EENTRO =        -0.21458904
  eigenvalues    EBANDS =     -2593.05900334
  atomic energy  EATOM  =     41944.73316905
  ---------------------------------------------------
  free energy    TOTEN  =       -87.48992711 eV

  energy without entropy =      -87.27533807  energy(sigma->0) =      -87.38263259


--------------------------------------------------------------------------------------------------------




----------------------------------------- Iteration    1(   5)  ---------------------------------------


     EDDAV:  cpu time 1508.84: real time 1508.96
       DOS:  cpu time    0.03: real time    0.04
    CHARGE:  cpu time  188.43: real time  188.44
    MIXING:  cpu time    0.07: real time    0.07
    --------------------------------------------
      LOOP:  cpu time 1697.38: real time 1710.82

 eigenvalue-minimisations  : 15172
 total energy-change (2. order) :-0.6111778E-01  (-0.6110232E-01)
 number of electron     256.0000007 magnetization 
 augmentation part      119.5301635 magnetization 

 Broyden mixing:
  rms(total) = 0.19459E+01    rms(broyden)= 0.19458E+01
  rms(prec ) = 0.23448E+01
  weight for this iteration     100.00

 Free energy of the ion-electron system (eV)
  ---------------------------------------------------
  alpha Z        PSCENC =      2154.88740723
  Ewald energy   TEWEN  =    -34431.08980821
  -1/2 Hartree   DENC   =     -8948.42295661
  -exchange  EXHF       =         0.00000000
  -V(xc)+E(xc)   XCENC  =      1324.50380981
  PAW double counting   =     36127.84510360   -35666.67305960
  entropy T*S    EENTRO =        -0.21464522
  eigenvalues    EBANDS =     -2593.12006493
  atomic energy  EATOM  =     41944.73316905
  ---------------------------------------------------
  free energy    TOTEN  =       -87.55104489 eV

  energy without entropy =      -87.33639967  energy(sigma->0) =      -87.44372228


--------------------------------------------------------------------------------------------------------




----------------------------------------- Iteration    1(   6)  ---------------------------------------


    POTLOK:  cpu time    3.28: real time    3.28
    SETDIJ:  cpu time    5.25: real time    5.25
     EDDAV:  cpu time 1508.76: real time 1508.88
       DOS:  cpu time    0.04: real time    0.04
    CHARGE:  cpu time  190.05: real time  190.07
    MIXING:  cpu time    0.07: real time    0.07
    --------------------------------------------
      LOOP:  cpu time 1707.44: real time 1707.60

 eigenvalue-minimisations  : 15161
 total energy-change (2. order) : 0.4110927E+01  (-0.1621523E+01)
 number of electron     256.0000007 magnetization 
 augmentation part      122.8204444 magnetization 

 Broyden mixing:
  rms(total) = 0.39893E+00    rms(broyden)= 0.39890E+00
  rms(prec ) = 0.41975E+00
  weight for this iteration     100.00

 eigenvalues of (default mixing * dielectric matrix)
  average eigenvalue GAMMA=   1.1103
  1.1103

 Free energy of the ion-electron system (eV)
  ---------------------------------------------------
  alpha Z        PSCENC =      2154.88740723
  Ewald energy   TEWEN  =    -34431.08980821
  -1/2 Hartree   DENC   =     -8674.20624804
  -exchange  EXHF       =         0.00000000
  -V(xc)+E(xc)   XCENC  =      1312.54481774
  PAW double counting   =     36979.51295175   -36548.64963962
  entropy T*S    EENTRO =        -0.21081598
  eigenvalues    EBANDS =     -2820.96195211
  atomic energy  EATOM  =     41944.73316905
  ---------------------------------------------------
  free energy    TOTEN  =       -83.44011819 eV

  energy without entropy =      -83.22930221  energy(sigma->0) =      -83.33471020


--------------------------------------------------------------------------------------------------------




----------------------------------------- Iteration    1(   7)  ---------------------------------------


    POTLOK:  cpu time    3.28: real time    3.28
    SETDIJ:  cpu time    5.26: real time    5.26
     EDDAV:  cpu time 1513.53: real time 1513.67
       DOS:  cpu time    0.04: real time    0.04
    CHARGE:  cpu time  187.30: real time  187.31
    MIXING:  cpu time    0.07: real time    0.07
    --------------------------------------------
      LOOP:  cpu time 1709.48: real time 1719.84

 eigenvalue-minimisations  : 15203
 total energy-change (2. order) : 0.4801492E-01  (-0.1313128E-01)
 number of electron     256.0000007 magnetization 
 augmentation part      122.7344327 magnetization 

 Broyden mixing:
  rms(total) = 0.24092E+00    rms(broyden)= 0.24092E+00
  rms(prec ) = 0.25633E+00
  weight for this iteration     100.00

 eigenvalues of (default mixing * dielectric matrix)
  average eigenvalue GAMMA=   1.7318
  0.9728  2.4909

 Free energy of the ion-electron system (eV)
  ---------------------------------------------------
  alpha Z        PSCENC =      2154.88740723
  Ewald energy   TEWEN  =    -34431.08980821
  -1/2 Hartree   DENC   =     -8672.31550611
  -exchange  EXHF       =         0.00000000
  -V(xc)+E(xc)   XCENC  =      1312.44496988
  PAW double counting   =     37503.16272672   -37077.49710936
  entropy T*S    EENTRO =        -0.21036364
  eigenvalues    EBANDS =     -2817.50758882
  atomic energy  EATOM  =     41944.73316905
  ---------------------------------------------------
  free energy    TOTEN  =       -83.39210326 eV

  energy without entropy =      -83.18173963  energy(sigma->0) =      -83.28692144


--------------------------------------------------------------------------------------------------------




----------------------------------------- Iteration    1(   8)  ---------------------------------------


    POTLOK:  cpu time    3.26: real time    3.26
    SETDIJ:  cpu time    5.13: real time    5.13
     EDDAV:  cpu time 1550.58: real time 1550.70
       DOS:  cpu time    0.04: real time    0.04
    CHARGE:  cpu time  191.09: real time  191.10
    MIXING:  cpu time    0.07: real time    0.07
    --------------------------------------------
      LOOP:  cpu time 1750.17: real time 1750.33

 eigenvalue-minimisations  : 15626
 total energy-change (2. order) :-0.3999906E-01  (-0.1383155E-01)
 number of electron     256.0000007 magnetization 
 augmentation part      122.7598075 magnetization 

 Broyden mixing:
  rms(total) = 0.25784E+00    rms(broyden)= 0.25783E+00
  rms(prec ) = 0.57169E+00
  weight for this iteration     100.00

 eigenvalues of (default mixing * dielectric matrix)
  average eigenvalue GAMMA=   1.2153
  2.5268  0.9744  0.1447

 Free energy of the ion-electron system (eV)
  ---------------------------------------------------
  alpha Z        PSCENC =      2154.88740723
  Ewald energy   TEWEN  =    -34431.08980821
  -1/2 Hartree   DENC   =     -8660.39662595
  -exchange  EXHF       =         0.00000000
  -V(xc)+E(xc)   XCENC  =      1311.91316169
  PAW double counting   =     38191.46647725   -37771.90486812
  entropy T*S    EENTRO =        -0.20528650
  eigenvalues    EBANDS =     -2822.83572876
  atomic energy  EATOM  =     41944.73316905
  ---------------------------------------------------
  free energy    TOTEN  =       -83.43210233 eV

  energy without entropy =      -83.22681582  energy(sigma->0) =      -83.32945908
