<?xml version="1.0" encoding="ISO-8859-1"?>
<modeling>
 <generator>
  <i name="program" type="string">vasp </i>
  <i name="version" type="string">5.3.3  </i>
  <i name="subversion" type="string">18Dez12 (build Jun 21 2016 14:15:03) complex                          serial </i>
  <i name="platform" type="string">LinuxIFC </i>
  <i name="date" type="string">2017 10 10 </i>
  <i name="time" type="string">16:16:28 </i>
 </generator>
 <incar>
  <i type="string" name="PREC">a</i>
  <i type="int" name="IALGO">    38</i>
  <i type="logical" name="ADDGRID"> T  </i>
  <i type="int" name="IBRION">    -1</i>
  <i name="EDIFF">      0.00000001</i>
  <i type="int" name="ISYM">     0</i>
  <i name="ENCUT">    500.00000000</i>
  <i type="logical" name="LREAL"> F  </i>
  <i type="int" name="ISMEAR">     0</i>
  <i name="SIGMA">      0.10000000</i>
  <i type="logical" name="LWAVE"> F  </i>
 </incar>
 <kpoints>
  <varray name="kpointlist" >
   <v>       0.09574468       0.91489362       0.89893617 </v>
   <v>       0.11702128       0.34042553       0.65425532 </v>
   <v>       0.13829787       0.76595745       0.40957447 </v>
   <v>       0.15957447       0.19148936       0.16489362 </v>
   <v>       0.18085106       0.61702128       0.92021277 </v>
   <v>       0.20212766       0.04255319       0.67553191 </v>
   <v>       0.22340426       0.46808511       0.43085106 </v>
   <v>       0.24468085       0.89361702       0.18617021 </v>
   <v>       0.26595745       0.31914894       0.94148936 </v>
   <v>       0.28723404       0.74468085       0.69680851 </v>
   <v>       0.30851064       0.17021277       0.45212766 </v>
   <v>       0.32978723       0.59574468       0.20744681 </v>
   <v>       0.35106383       0.02127660       0.96276596 </v>
   <v>       0.37234043       0.44680851       0.71808511 </v>
   <v>       0.39361702       0.87234043       0.47340426 </v>
   <v>       0.41489362       0.29787234       0.22872340 </v>
   <v>       0.43617021       0.72340426       0.98404255 </v>
   <v>       0.45744681       0.14893617       0.73936170 </v>
   <v>       0.47872340       0.57446809       0.49468085 </v>
   <v>       0.50000000       1.00000000       0.25000000 </v>
   <v>       0.52127660       0.42553191       0.00531915 </v>
   <v>       0.54255319       0.85106383       0.76063830 </v>
   <v>       0.56382979       0.27659574       0.51595745 </v>
   <v>       0.58510638       0.70212766       0.27127660 </v>
   <v>       0.60638298       0.12765957       0.02659574 </v>
   <v>       0.62765957       0.55319149       0.78191489 </v>
   <v>       0.64893617       0.97872340       0.53723404 </v>
   <v>       0.67021277       0.40425532       0.29255319 </v>
   <v>       0.69148936       0.82978723       0.04787234 </v>
   <v>       0.71276596       0.25531915       0.80319149 </v>
   <v>       0.73404255       0.68085106       0.55851064 </v>
   <v>       0.75531915       0.10638298       0.31382979 </v>
   <v>       0.77659574       0.53191489       0.06914894 </v>
   <v>       0.79787234       0.95744681       0.82446809 </v>
   <v>       0.81914894       0.38297872       0.57978723 </v>
   <v>       0.84042553       0.80851064       0.33510638 </v>
   <v>       0.86170213       0.23404255       0.09042553 </v>
   <v>       0.88297872       0.65957447       0.84574468 </v>
   <v>       0.90425532       0.08510638       0.60106383 </v>
   <v>       0.92553191       0.51063830       0.35638298 </v>
   <v>       0.94680851       0.93617021       0.11170213 </v>
   <v>       0.96808511       0.36170213       0.86702128 </v>
   <v>       0.98936170       0.78723404       0.62234043 </v>
   <v>       0.92553191       0.51063830       0.85638298 </v>
   <v>       0.94680851       0.93617021       0.61170213 </v>
   <v>       0.96808511       0.36170213       0.36702128 </v>
   <v>       0.98936170       0.78723404       0.12234043 </v>
  </varray>
  <varray name="weights" >
   <v>       0.02127660 </v>
   <v>       0.02127660 </v>
   <v>       0.02127660 </v>
   <v>       0.02127660 </v>
   <v>       0.02127660 </v>
   <v>       0.02127660 </v>
   <v>       0.02127660 </v>
   <v>       0.02127660 </v>
   <v>       0.02127660 </v>
   <v>       0.02127660 </v>
   <v>       0.02127660 </v>
   <v>       0.02127660 </v>
   <v>       0.02127660 </v>
   <v>       0.02127660 </v>
   <v>       0.02127660 </v>
   <v>       0.02127660 </v>
   <v>       0.02127660 </v>
   <v>       0.02127660 </v>
   <v>       0.02127660 </v>
   <v>       0.02127660 </v>
   <v>       0.02127660 </v>
   <v>       0.02127660 </v>
   <v>       0.02127660 </v>
   <v>       0.02127660 </v>
   <v>       0.02127660 </v>
   <v>       0.02127660 </v>
   <v>       0.02127660 </v>
   <v>       0.02127660 </v>
   <v>       0.02127660 </v>
   <v>       0.02127660 </v>
   <v>       0.02127660 </v>
   <v>       0.02127660 </v>
   <v>       0.02127660 </v>
   <v>       0.02127660 </v>
   <v>       0.02127660 </v>
   <v>       0.02127660 </v>
   <v>       0.02127660 </v>
   <v>       0.02127660 </v>
   <v>       0.02127660 </v>
   <v>       0.02127660 </v>
   <v>       0.02127660 </v>
   <v>       0.02127660 </v>
   <v>       0.02127660 </v>
   <v>       0.02127660 </v>
   <v>       0.02127660 </v>
   <v>       0.02127660 </v>
   <v>       0.02127660 </v>
  </varray>
 </kpoints>
 <parameters>
  <separator name="general" >
   <i type="string" name="SYSTEM">unknown system</i>
   <i type="logical" name="LCOMPAT"> F  </i>
  </separator>
  <separator name="electronic" >
   <i type="string" name="PREC">a</i>
   <i name="ENMAX">    500.00000000</i>
   <i name="ENAUG">    473.06700000</i>
   <i name="EDIFF">      0.00000001</i>
   <i type="int" name="IALGO">    38</i>
   <i type="int" name="IWAVPR">     0</i>
   <i type="int" name="NBANDS">   153</i>
   <i name="NELECT">    256.00000000</i>
   <i type="int" name="TURBO">     0</i>
   <i type="int" name="IRESTART">     0</i>
   <i type="int" name="NREBOOT">     0</i>
   <i type="int" name="NMIN">     0</i>
   <i name="EREF">      0.00000000</i>
   <separator name="electronic smearing" >
    <i type="int" name="ISMEAR">     0</i>
    <i name="SIGMA">      0.10000000</i>
    <i name="KSPACING">      0.50000000</i>
    <i type="logical" name="KGAMMA"> T  </i>
   </separator>
   <separator name="electronic projectors" >
    <i type="logical" name="LREAL"> F  </i>
    <v name="ROPT">      0.00000000</v>
    <i type="int" name="LMAXPAW">  -100</i>
    <i type="int" name="LMAXMIX">     2</i>
    <i type="logical" name="NLSPLINE"> F  </i>
   </separator>
   <separator name="electronic startup" >
    <i type="int" name="ISTART">     0</i>
    <i type="int" name="ICHARG">     2</i>
    <i type="int" name="INIWAV">     1</i>
   </separator>
   <separator name="electronic spin" >
    <i type="int" name="ISPIN">     1</i>
    <i type="logical" name="LNONCOLLINEAR"> F  </i>
    <v name="MAGMOM">      1.00000000      1.00000000      1.00000000      1.00000000      1.00000000      1.00000000      1.00000000      1.00000000      1.00000000      1.00000000      1.00000000      1.00000000      1.00000000      1.00000000      1.00000000      1.00000000</v>
    <i name="NUPDOWN">     -1.00000000</i>
    <i type="logical" name="LSORBIT"> F  </i>
    <v name="SAXIS">      0.00000000      0.00000000      1.00000000</v>
    <i type="logical" name="LSPIRAL"> F  </i>
    <v name="QSPIRAL">      0.00000000      0.00000000      0.00000000</v>
    <i type="logical" name="LZEROZ"> F  </i>
   </separator>
   <separator name="electronic exchange-correlation" >
    <i type="logical" name="LASPH"> F  </i>
    <i type="logical" name="LMETAGGA"> F  </i>
   </separator>
   <separator name="electronic convergence" >
    <i type="int" name="NELM">    60</i>
    <i type="int" name="NELMDL">    -5</i>
    <i type="int" name="NELMIN">     2</i>
    <i name="ENINI">    500.00000000</i>
    <separator name="electronic convergence detail" >
     <i type="logical" name="LDIAG"> T  </i>
     <i type="logical" name="LSUBROT"> T  </i>
     <i name="WEIMIN">      0.00000000</i>
     <i name="EBREAK">      0.00000000</i>
     <i name="DEPER">      0.30000000</i>
     <i type="int" name="NRMM">     4</i>
     <i name="TIME">      0.40000000</i>
    </separator>
   </separator>
   <separator name="electronic mixer" >
    <i name="AMIX">      0.40000000</i>
    <i name="BMIX">      1.00000000</i>
    <i name="AMIN">      0.10000000</i>
    <i name="AMIX_MAG">      1.60000000</i>
    <i name="BMIX_MAG">      1.00000000</i>
    <separator name="electronic mixer details" >
     <i type="int" name="IMIX">     4</i>
     <i type="int" name="MAXMIX">   -45</i>
     <i name="WC">    100.00000000</i>
     <i type="int" name="INIMIX">     1</i>
     <i type="int" name="MIXPRE">     1</i>
     <i type="int" name="MREMOVE">     5</i>
    </separator>
   </separator>
   <separator name="electronic dipolcorrection" >
    <i type="logical" name="LDIPOL"> F  </i>
    <i type="logical" name="LMONO"> F  </i>
    <i type="int" name="IDIPOL">     0</i>
    <i name="EPSILON">      1.00000000</i>
    <v name="DIPOL">   -100.00000000   -100.00000000   -100.00000000</v>
    <i name="EFIELD">      0.00000000</i>
   </separator>
  </separator>
  <separator name="grids" >
   <i type="int" name="NGX">    70</i>
   <i type="int" name="NGY">    70</i>
   <i type="int" name="NGZ">    70</i>
   <i type="int" name="NGXF">   140</i>
   <i type="int" name="NGYF">   140</i>
   <i type="int" name="NGZF">   140</i>
   <i type="logical" name="ADDGRID"> T  </i>
  </separator>
  <separator name="ionic" >
   <i type="int" name="NSW">     0</i>
   <i type="int" name="IBRION">    -1</i>
   <i type="int" name="ISIF">     2</i>
   <i name="PSTRESS">      0.00000000</i>
   <i name="EDIFFG">      0.00000010</i>
   <i type="int" name="NFREE">     0</i>
   <i name="POTIM">      0.50000000</i>
   <i name="SMASS">     -3.00000000</i>
   <i name="SCALEE">      1.00000000</i>
  </separator>
  <separator name="ionic md" >
   <i name="TEBEG">      0.00010000</i>
   <i name="TEEND">      0.00010000</i>
   <i type="int" name="NBLOCK">     1</i>
   <i type="int" name="KBLOCK">     1</i>
   <i type="int" name="NPACO">   256</i>
   <i name="APACO">     16.00000000</i>
  </separator>
  <separator name="symmetry" >
   <i type="int" name="ISYM">     0</i>
   <i name="SYMPREC">      0.00001000</i>
  </separator>
  <separator name="dos" >
   <i type="logical" name="LORBIT"> F  </i>
   <v name="RWIGS">     -1.00000000</v>
   <i type="int" name="NEDOS">   301</i>
   <i name="EMIN">     10.00000000</i>
   <i name="EMAX">    -10.00000000</i>
   <i name="EFERMI">      0.00000000</i>
  </separator>
  <separator name="writing" >
   <i type="int" name="NWRITE">     2</i>
   <i type="logical" name="LWAVE"> F  </i>
   <i type="logical" name="LCHARG"> T  </i>
   <i type="logical" name="LPARD"> F  </i>
   <i type="logical" name="LVTOT"> F  </i>
   <i type="logical" name="LVHAR"> F  </i>
   <i type="logical" name="LELF"> F  </i>
   <i type="logical" name="LOPTICS"> F  </i>
   <v name="STM">      0.00000000      0.00000000      0.00000000      0.00000000      0.00000000      0.00000000      0.00000000</v>
  </separator>
  <separator name="performance" >
   <i type="int" name="NPAR">     1</i>
   <i type="int" name="NSIM">     4</i>
   <i type="int" name="NBLK">    -1</i>
   <i type="logical" name="LPLANE"> T  </i>
   <i type="logical" name="LSCALAPACK"> F  </i>
   <i type="logical" name="LSCAAWARE"> F  </i>
   <i type="logical" name="LSCALU"> F  </i>
   <i type="logical" name="LASYNC"> F  </i>
   <i type="logical" name="LORBITALREAL"> F  </i>
  </separator>
  <separator name="miscellaneous" >
   <i type="int" name="IDIOT">     3</i>
   <i type="logical" name="LMUSIC"> F  </i>
   <v name="POMASS">    106.42000000</v>
   <v name="DARWINR">      0.00000000</v>
   <v name="DARWINV">      1.00000000</v>
   <i type="logical" name="LCORR"> T  </i>
  </separator>
  <i type="logical" name="GGA_COMPAT"> T  </i>
  <i type="logical" name="LBERRY"> F  </i>
  <i type="int" name="ICORELEVEL">     0</i>
  <i type="logical" name="LDAU"> F  </i>
  <i type="int" name="I_CONSTRAINED_M">     0</i>
  <separator name="electronic exchange-correlation" >
   <i type="string" name="GGA">--</i>
   <i type="int" name="VOSKOWN">     0</i>
   <i type="logical" name="LHFCALC"> F  </i>
   <i type="string" name="PRECFOCK"></i>
   <i type="logical" name="LSYMGRAD"> F  </i>
   <i type="logical" name="LHFONE"> F  </i>
   <i type="logical" name="LRHFCALC"> F  </i>
   <i type="logical" name="LTHOMAS"> F  </i>
   <i type="logical" name="LMODELHF"> F  </i>
   <i name="ENCUT4O">     -1.00000000</i>
   <i type="int" name="EXXOEP">     0</i>
   <i type="int" name="FOURORBIT">     0</i>
   <i name="AEXX">      0.00000000</i>
   <i name="HFALPHA">      0.00000000</i>
   <i name="MCALPHA">      0.00000000</i>
   <i name="ALDAX">      1.00000000</i>
   <i name="AGGAX">      1.00000000</i>
   <i name="ALDAC">      1.00000000</i>
   <i name="AGGAC">      1.00000000</i>
   <i type="int" name="NKREDX">     1</i>
   <i type="int" name="NKREDY">     1</i>
   <i type="int" name="NKREDZ">     1</i>
   <i type="logical" name="SHIFTRED"> F  </i>
   <i type="logical" name="ODDONLY"> F  </i>
   <i type="logical" name="EVENONLY"> F  </i>
   <i type="int" name="LMAXFOCK">     0</i>
   <i type="int" name="NMAXFOCKAE">     0</i>
   <i type="logical" name="LFOCKAEDFT"> F  </i>
   <i name="HFSCREEN">      0.00000000</i>
   <i name="HFSCREENC">      0.00000000</i>
   <i type="int" name="NBANDSGWLOW">     0</i>
  </separator>
  <separator name="vdW DFT" >
   <i type="logical" name="LUSE_VDW"> F  </i>
   <i name="Zab_VDW">     -0.84910000</i>
   <i name="PARAM1">      0.12340000</i>
   <i name="PARAM2">      1.00000000</i>
   <i name="PARAM3">      0.00000000</i>
  </separator>
  <separator name="model GW" >
   <i type="int" name="MODEL_GW">     0</i>
   <i name="MODEL_EPS0">      9.08393385</i>
   <i name="MODEL_ALPHA">      1.00000000</i>
  </separator>
  <separator name="linear response parameters" >
   <i type="logical" name="LEPSILON"> F  </i>
   <i type="logical" name="LRPA"> F  </i>
   <i type="logical" name="LNABLA"> F  </i>
   <i type="logical" name="LVEL"> F  </i>
   <i type="int" name="KINTER">     0</i>
   <i name="CSHIFT">      0.10000000</i>
   <i name="OMEGAMAX">     -1.00000000</i>
   <i name="DEG_THRESHOLD">      0.00200000</i>
  </separator>
  <separator name="orbital magnetization" >
   <i type="logical" name="NUCIND"> F  </i>
   <v name="MAGPOS">      0.00000000      0.00000000      0.00000000</v>
   <i type="logical" name="LNICSALL"> T  </i>
   <i type="logical" name="ORBITALMAG"> F  </i>
   <i type="logical" name="LMAGBLOCH"> F  </i>
   <i type="logical" name="LCHIMAG"> F  </i>
   <i type="logical" name="LGAUGE"> T  </i>
   <i type="int" name="MAGATOM">     0</i>
   <v name="MAGDIPOL">      0.00000000      0.00000000      0.00000000</v>
   <v name="AVECCONST">      0.00000000      0.00000000      0.00000000</v>
  </separator>
  <separator name="response functions" >
   <i type="logical" name="LADDER"> F  </i>
   <i type="logical" name="LFXC"> F  </i>
   <i type="logical" name="LHARTREE"> T  </i>
   <i type="int" name="IBSE">     0</i>
   <i type="logical" name="LTCTE"> F  </i>
   <i type="logical" name="LTETE"> F  </i>
   <i type="logical" name="LTRIPLET"> F  </i>
   <i type="logical" name="LFXCEPS"> F  </i>
   <i type="logical" name="L2ORDER"> F  </i>
   <i type="logical" name="LUSEW"> F  </i>
   <i name="ENCUTGW">     -2.00000000</i>
   <i name="ENCUTGWSOFT">     -2.00000000</i>
   <i name="ENCUTLF">     -1.00000000</i>
   <i type="int" name="LMAXMP2">    -1</i>
   <i name="SCISSOR">      0.00000000</i>
   <i type="int" name="NOMEGA">     0</i>
   <i type="int" name="NOMEGAR">     0</i>
   <i type="int" name="NBANDSGW">    -1</i>
   <i type="int" name="NBANDSO">    -1</i>
   <i type="int" name="NBANDSV">    -1</i>
   <i type="int" name="NELM">     1</i>
   <i type="int" name="DIM">     3</i>
   <i type="int" name="ANTIRES">     0</i>
   <i name="OMEGAMAX">    -30.00000000</i>
   <i name="OMEGATL">   -200.00000000</i>
   <i type="int" name="OMEGAGRID">     0</i>
   <i name="CSHIFT">     -0.10000000</i>
   <i type="logical" name="SELFENERGY"> F  </i>
   <i type="logical" name="LSPECTRAL"> F  </i>
   <i type="logical" name="ODDONLYGW"> F  </i>
   <i type="logical" name="EVENONLYGW"> F  </i>
   <i type="int" name="NKREDLFX">     1</i>
   <i type="int" name="NKREDLFY">     1</i>
   <i type="int" name="NKREDLFZ">     1</i>
   <i type="int" name="MAXMEM">  1800</i>
   <i type="int" name="TELESCOPE">     0</i>
  </separator>
 </parameters>
 <atominfo>
  <atoms>      16 </atoms>
  <types>       1 </types>
  <array name="atoms" >
   <dimension dim="1">ion</dimension>
   <field type="string">element</field>
   <field type="int">atomtype</field>
   <set>
    <rc><c>Pd</c><c>   1</c></rc>
    <rc><c>Pd</c><c>   1</c></rc>
    <rc><c>Pd</c><c>   1</c></rc>
    <rc><c>Pd</c><c>   1</c></rc>
    <rc><c>Pd</c><c>   1</c></rc>
    <rc><c>Pd</c><c>   1</c></rc>
    <rc><c>Pd</c><c>   1</c></rc>
    <rc><c>Pd</c><c>   1</c></rc>
    <rc><c>Pd</c><c>   1</c></rc>
    <rc><c>Pd</c><c>   1</c></rc>
    <rc><c>Pd</c><c>   1</c></rc>
    <rc><c>Pd</c><c>   1</c></rc>
    <rc><c>Pd</c><c>   1</c></rc>
    <rc><c>Pd</c><c>   1</c></rc>
    <rc><c>Pd</c><c>   1</c></rc>
    <rc><c>Pd</c><c>   1</c></rc>
   </set>
  </array>
  <array name="atomtypes" >
   <dimension dim="1">type</dimension>
   <field type="int">atomspertype</field>
   <field type="string">element</field>
   <field>mass</field>
   <field>valence</field>
   <field type="string">pseudopotential</field>
   <set>
    <rc><c>  16</c><c>Pd</c><c>    106.42000000</c><c>     16.00000000</c><c>  PAW_PBE Pd_pv 28Jan2005               </c></rc>
   </set>
  </array>
 </atominfo>
 <structure name="initialpos" >
  <crystal>
   <varray name="basis" >
    <v>       7.85400000       3.92700000       3.92700000 </v>
    <v>       3.92700000       7.85400000       3.92700000 </v>
    <v>       3.92700000       3.92700000       7.85400000 </v>
   </varray>
   <i name="volume">    242.23823593 </i>
   <varray name="rec_basis" >
    <v>       0.19098549      -0.06366183      -0.06366183 </v>
    <v>      -0.06366183       0.19098549      -0.06366183 </v>
    <v>      -0.06366183      -0.06366183       0.19098549 </v>
   </varray>
  </crystal>
  <varray name="positions" >
   <v>       0.00103959       0.00000000       0.00000000 </v>
   <v>       0.75000000       0.25000000       0.25000000 </v>
   <v>       0.50000000       0.50000000       0.50000000 </v>
   <v>       0.25000000       0.75000000       0.75000000 </v>
   <v>       0.25000000       0.75000000       0.25000000 </v>
   <v>       0.00000000       0.00000000       0.50000000 </v>
   <v>       0.75000000       0.25000000       0.75000000 </v>
   <v>       0.50000000       0.50000000       0.00000000 </v>
   <v>       0.25000000       0.25000000       0.75000000 </v>
   <v>       0.00000000       0.50000000       0.00000000 </v>
   <v>       0.75000000       0.75000000       0.25000000 </v>
   <v>       0.50000000       0.00000000       0.50000000 </v>
   <v>       0.50000000       0.00000000       0.00000000 </v>
   <v>       0.25000000       0.25000000       0.25000000 </v>
   <v>       0.00000000       0.50000000       0.50000000 </v>
   <v>       0.75000000       0.75000000       0.75000000 </v>
  </varray>
 </structure>
 <calculation>
  <scstep>
   <time name="dav"> 1463.50 1463.61</time>
   <time name="total"> 1471.90 1472.01</time>
   <energy>
    <i name="alphaZ">   2154.88740723 </i>
    <i name="ewald"> -34431.08980821 </i>
    <i name="hartreedc">  -8948.42295661 </i>
    <i name="XCdc">   1324.50380981 </i>
    <i name="pawpsdc">  36127.84510360 </i>
    <i name="pawaedc"> -35666.67305960 </i>
    <i name="eentropy">     -0.01950898 </i>
    <i name="bandstr">    971.43587685 </i>
    <i name="atom">  41944.73316905 </i>
    <i name="e_fr_energy">   3477.20003313 </i>
    <i name="e_wo_entrp">   3477.21954211 </i>
    <i name="e_0_energy">   3477.20978762 </i>
   </energy>
  </scstep>
  <scstep>
   <time name="dav"> 1455.76 1455.87</time>
   <time name="total"> 1455.80 1455.92</time>
   <energy>
    <i name="e_fr_energy">    117.86084552 </i>
    <i name="e_wo_entrp">    117.90248900 </i>
    <i name="e_0_energy">    117.88166726 </i>
   </energy>
  </scstep>
  <scstep>
   <time name="dav"> 1516.61 1516.72</time>
   <time name="total"> 1516.65 1516.77</time>
   <energy>
    <i name="e_fr_energy">    -81.71684577 </i>
    <i name="e_wo_entrp">    -81.50677076 </i>
    <i name="e_0_energy">    -81.61180827 </i>
   </energy>
  </scstep>
  <scstep>
   <time name="dav"> 1524.33 1524.45</time>
   <time name="total"> 1524.37 1524.50</time>
   <energy>
    <i name="e_fr_energy">    -87.48992711 </i>
    <i name="e_wo_entrp">    -87.27533807 </i>
    <i name="e_0_energy">    -87.38263259 </i>
