 vasp.5.3.3 18Dez12 (build Jun 21 2016 14:15:03) complex                        
  
 executed on             LinuxIFC date 2017.10.19  13:24:50
 serial version


--------------------------------------------------------------------------------------------------------


 INCAR:
 POTCAR:    PAW_PBE Pd_pv 28Jan2005               
 POTCAR:    PAW_PBE Pd_pv 28Jan2005               
   VRHFIN =Pd: 4p5s4d                                                           
   LEXCH  = PE                                                                  
   EATOM  =  2621.5550 eV,  192.6789 Ry                                         
                                                                                
   TITEL  = PAW_PBE Pd_pv 28Jan2005                                             
   LULTRA =        F    use ultrasoft PP ?                                      
   IUNSCR =        1    unscreen: 0-lin 1-nonlin 2-no                           
   RPACOR =    2.250    partial core radius                                     
   POMASS =  106.420; ZVAL   =   16.000    mass and valenz                      
   RCORE  =    2.400    outmost cutoff radius                                   
   RWIGS  =    2.300; RWIGS  =    1.217    wigner-seitz radius (au A)           
   ENMAX  =  250.925; ENMIN  =  188.194 eV                                      
   ICORE  =        3    local potential                                         
   LCOR   =        T    correct aug charges                                     
   LPAW   =        T    paw PP                                                  
   EAUG   =  473.067                                                            
   DEXC   =    0.000                                                            
   RMAX   =    2.449    core radius for proj-oper                               
   RAUG   =    1.300    factor for augmentation sphere                          
   RDEP   =    2.405    radius for radial grids                                 
   RDEPT  =    1.966    core radius for aug-charge                              
                                                                                
   Atomic configuration                                                         
   11 entries                                                                   
     n  l   j            E        occ.                                          
     1  0  0.50    -24164.6632   2.0000                                         
     2  0  0.50     -3530.9218   2.0000                                         
     2  1  1.50     -3165.6822   6.0000                                         
     3  0  0.50      -639.4578   2.0000                                         
     3  1  1.50      -519.4532   6.0000                                         
     3  2  2.50      -328.9758  10.0000                                         
     4  0  0.50       -88.7014   2.0000                                         
     4  1  1.50       -54.4541   6.0000                                         
     4  2  2.50        -6.6878   9.0000                                         
     5  0  0.50        -4.3543   1.0000                                         
     4  3  2.50        -1.3606   0.0000                                         
   Description                                                                  
     l       E           TYP  RCUT    TYP  RCUT                                 
     1    -54.4540524     23  2.100                                             
     1      4.0817478     23  2.100                                             
     2     -6.6878326     23  2.400                                             
     2     -4.0817478     23  2.400                                             
     0     -4.3542962     23  2.400                                             
     0     13.6058260     23  2.400                                             
     3     -5.4423304     23  2.400                                             
  local pseudopotential read in
  partial core-charges read in
  partial kinetic energy density read in
  atomic valenz-charges read in
  non local Contribution for L=           1  read in
    real space projection operators read in
  non local Contribution for L=           1  read in
    real space projection operators read in
  non local Contribution for L=           2  read in
    real space projection operators read in
  non local Contribution for L=           2  read in
    real space projection operators read in
  non local Contribution for L=           0  read in
    real space projection operators read in
  non local Contribution for L=           0  read in
    real space projection operators read in
    PAW grid and wavefunctions read in
 
   number of l-projection  operators is LMAX  =           6
   number of lm-projection operators is LMMAX =          18
 
 Optimization of the real space projectors (new method)

 maximal supplied QI-value         = 15.68
 optimisation between [QCUT,QGAM] = [  8.78, 17.72] = [ 21.60, 87.97] Ry 
 Optimized for a Real-space Cutoff    1.74 Angstroem

   l    n(q)    QCUT    max X(q) W(low)/X(q) W(high)/X(q)  e(spline) 
   1      9     8.783     3.357    0.98E-04    0.76E-04    0.17E-06
   1      9     8.783     4.938    0.21E-03    0.13E-03    0.38E-06
   2      8     8.783    23.508    0.21E-03    0.23E-03    0.36E-06
   2      8     8.783    23.349    0.20E-03    0.22E-03    0.34E-06
   0      9     8.783    49.920    0.63E-04    0.36E-04    0.14E-06
   0      9     8.783    23.997    0.53E-04    0.34E-04    0.12E-06
  PAW_PBE Pd_pv 28Jan2005               :
 energy of atom  1       EATOM=-2621.5550
 kinetic energy error for atom=    0.0975 (will be added to EATOM!!)
 
 
 POSCAR: Pd                                      
  positions in cartesian coordinates
  No initial velocities read in
 exchange correlation table for  LEXCH =        8
   RHO(1)=    0.500       N(1)  =     2000
   RHO(2)=  100.500       N(2)  =     4000
 


--------------------------------------------------------------------------------------------------------


 ion  position               nearest neighbor table
   1  0.000  0.000  0.018-   5 2.53  31 2.70  13 2.73   2 2.76  27 2.78  17 2.78  14 2.78  29 2.79
                             8 2.80  28 2.83   4 2.85
   2  0.000  0.250  0.266-   3 2.53  25 2.70  17 2.76   1 2.76  18 2.78  28 2.78   6 2.79  32 2.79
                            15 2.80   5 2.80  14 2.85
   3  0.000  0.500  0.470-   2 2.53  18 2.53  31 2.59  15 2.77  19 2.78  26 2.78  25 2.79  16 2.80
                             6 2.80
   4  0.000  0.750  0.755-   8 2.59  30 2.59  16 2.70  32 2.70   7 2.78  13 2.78  20 2.79  26 2.79
                             1 2.85  27 2.85
   5  0.250  0.000  0.221-   1 2.53  17 2.53  24 2.61  19 2.77  21 2.78   8 2.78  31 2.79  12 2.80
                             2 2.80
   6  0.250  0.250  0.518-  10 2.53  20 2.53   7 2.76  29 2.76  22 2.78  32 2.78   9 2.78   2 2.79
                            18 2.79   3 2.80
   7  0.250  0.500  0.766-   8 2.53  30 2.53  22 2.76   6 2.76  29 2.78  23 2.78   4 2.78  11 2.79
                            17 2.79  10 2.80
   8  0.250  0.750  0.970-   7 2.53  23 2.53   4 2.59  20 2.77  30 2.78   5 2.78  24 2.79   1 2.80
                            11 2.80
   9  0.500  0.000  0.502-  10 2.61  20 2.61  28 2.64  12 2.70  25 2.78  16 2.78   6 2.78  19 2.79
                            23 2.85  13 2.92
  10  0.500  0.250  0.721-   6 2.53  22 2.53   9 2.61  25 2.61  20 2.78  26 2.78   7 2.80  13 2.81

  11  0.500  0.500  0.018-  15 2.53  21 2.53  18 2.76  12 2.76  17 2.78  27 2.78  14 2.78  23 2.79
                             7 2.79   8 2.80
  12  0.500  0.750  0.266-  19 2.53   9 2.70  11 2.76  27 2.76  18 2.78  28 2.78  16 2.79  22 2.79
                             5 2.80  15 2.80  24 2.85
  13  0.750  0.000  0.778-  14 2.64  24 2.64   1 2.73  27 2.73  23 2.78  29 2.78   4 2.78  10 2.81
                            16 2.83  32 2.83  25 2.92   9 2.92
  14  0.750  0.250  0.002-  15 2.61  21 2.61  13 2.64  29 2.70  24 2.78  11 2.78   1 2.78  30 2.79
                             2 2.85  28 2.92
  15  0.750  0.500  0.221-  11 2.53  27 2.53  14 2.61   3 2.77  21 2.78  30 2.78  31 2.79  12 2.80
                             2 2.80
  16  0.750  0.750  0.518-  26 2.53   4 2.70  28 2.73  23 2.76  22 2.78  32 2.78   9 2.78  12 2.79
                             3 2.80  13 2.83  31 2.85
  17  0.250  0.250  0.018-   5 2.53  21 2.53  18 2.76   2 2.76   1 2.78  11 2.78  24 2.78   7 2.79
                            29 2.79  30 2.80
  18  0.250  0.500  0.266-   3 2.53  19 2.53  17 2.76  11 2.76   2 2.78  12 2.78  31 2.78  22 2.79
                             6 2.79  21 2.80
  19  0.250  0.750  0.470-  12 2.53  18 2.53  31 2.59   5 2.77   3 2.78  20 2.78   9 2.79  22 2.80
                            32 2.80
  20  0.250  0.000  0.721-   6 2.53  32 2.53   9 2.61   8 2.77  10 2.78  19 2.78   4 2.79  29 2.80
                            23 2.80
  21  0.500  0.250  0.221-  11 2.53  17 2.53  14 2.61  24 2.61   5 2.78  15 2.78  18 2.80  28 2.81

  22  0.500  0.500  0.518-  10 2.53  26 2.53  23 2.76   7 2.76   6 2.78  16 2.78  25 2.78  18 2.79
                            12 2.79  19 2.80
  23  0.500  0.750  0.766-   8 2.53  24 2.70  22 2.76  16 2.76   7 2.78  13 2.78  11 2.79  27 2.79
                            26 2.80  20 2.80   9 2.85
  24  0.500  0.000  0.002-   5 2.61  21 2.61  13 2.64  23 2.70  14 2.78  17 2.78  27 2.78   8 2.79
                            12 2.85  28 2.92
  25  0.750  0.250  0.502-  10 2.61  26 2.61  28 2.64   2 2.70   9 2.78  22 2.78  32 2.78   3 2.79
                            29 2.85  13 2.92
  26  0.750  0.500  0.721-  16 2.53  22 2.53  25 2.61  30 2.77  10 2.78   3 2.78   4 2.79  29 2.80
                            23 2.80
  27  0.750  0.750  0.018-  15 2.53  31 2.70  13 2.73  12 2.76   1 2.78  11 2.78  24 2.78  23 2.79
                            30 2.80  28 2.83   4 2.85
  28  0.750  0.000  0.278-   9 2.64  25 2.64  16 2.73  32 2.73  12 2.78   2 2.78  31 2.78  21 2.81
                             1 2.83  27 2.83  14 2.92  24 2.92
  29  0.000  0.250  0.766-  30 2.53  14 2.70   6 2.76  32 2.76   7 2.78  13 2.78   1 2.79  17 2.79
                            20 2.80  26 2.80  25 2.85
  30  0.000  0.500  0.970-   7 2.53  29 2.53   4 2.59  26 2.77   8 2.78  15 2.78  14 2.79  27 2.80
                            17 2.80
  31  0.000  0.750  0.255-   3 2.59  19 2.59   1 2.70  27 2.70  18 2.78  28 2.78   5 2.79  15 2.79
                            16 2.85  32 2.85
  32  0.000  0.000  0.518-  20 2.53   4 2.70  28 2.73  29 2.76  16 2.78   6 2.78  25 2.78   2 2.79
                            19 2.80  13 2.83  31 2.85
 

IMPORTANT INFORMATION: All symmetrisations will be switched off!
NOSYMM: (Re-)initialisation of all symmetry stuff for point group C_1.

 
 
 KPOINTS: Server version 2017.10.18. K-point grid 
  k-points in reciprocal lattice
Space group operators:
 irot       det(A)        alpha          n_x          n_y          n_z        tau_x        tau_y        tau_z
    1     1.000000     0.000000     1.000000     0.000000     0.000000     0.000000     0.000000     0.000000


--------------------------------------------------------------------------------------------------------




 Dimension of arrays:
   k-points           NKPTS =     24   k-points in BZ     NKDIM =     24   number of bands    NBANDS=    307
   number of dos      NEDOS =    301   number of ions     NIONS =     32
   non local maximal  LDIM  =      6   non local SUM 2l+1 LMDIM =     18
   total plane-waves  NPLWV = 110592
   max r-space proj   IRMAX =   5103   max aug-charges    IRDMAX=   9337
   dimension x,y,z NGX =    48 NGY =   48 NGZ =   48
   dimension x,y,z NGXF=    96 NGYF=   96 NGZF=   96
   support grid    NGXF=    96 NGYF=   96 NGZF=   96
   ions per type =              32
 NGX,Y,Z   is equivalent  to a cutoff of  10.16, 10.16, 10.16 a.u.
 NGXF,Y,Z  is equivalent  to a cutoff of  20.32, 20.32, 20.32 a.u.


 I would recommend the setting:
   dimension x,y,z NGX =    44 NGY =   44 NGZ =   44
 SYSTEM =  unknown system                          
 POSCAR =  Pd                                      

 Startparameter for this run:
   NWRITE =      2    write-flag & timer
   PREC   = a         normal or accurate (medium, high low for compatibility)
   ISTART =      0    job   : 0-new  1-cont  2-samecut
   ICHARG =      2    charge: 1-file 2-atom 10-const
   ISPIN  =      1    spin polarized calculation?
   LNONCOLLINEAR =      F non collinear calculations
   LSORBIT =      F    spin-orbit coupling
   INIWAV =      1    electr: 0-lowe 1-rand  2-diag
   LASPH  =      F    aspherical Exc in radial PAW
   METAGGA=      F    non-selfconsistent MetaGGA calc.

 Electronic Relaxation 1
   ENCUT  =  300.0 eV  22.05 Ry    4.70 a.u.  11.09 11.09 11.09*2*pi/ulx,y,z
   ENINI  =  300.0     initial cutoff
   ENAUG  =  473.1 eV  augmentation charge cutoff
   NELM   =     60;   NELMIN=  2; NELMDL= -5     # of ELM steps 
   EDIFF  = 0.1E-04   stopping-criterion for ELM
   LREAL  =      T    real-space projection
   NLSPLINE    = F    spline interpolate recip. space projectors
   LCOMPAT=      F    compatible to vasp.4.4
   GGA_COMPAT  = T    GGA compatible to vasp.4.4-vasp.4.6
   LMAXPAW     = -100 max onsite density
   LMAXMIX     =    2 max onsite mixed and CHGCAR
   VOSKOWN=      0    Vosko Wilk Nusair interpolation
   ROPT   =   -0.00025
 Ionic relaxation
   EDIFFG = 0.1E-03   stopping-criterion for IOM
   NSW    =      0    number of steps for IOM
   NBLOCK =      1;   KBLOCK =      1    inner block; outer block 
   IBRION =     -1    ionic relax: 0-MD 1-quasi-New 2-CG
   NFREE  =      0    steps in history (QN), initial steepest desc. (CG)
   ISIF   =      2    stress and relaxation
   IWAVPR =      0    prediction:  0-non 1-charg 2-wave 3-comb
   ISYM   =      0    0-nonsym 1-usesym 2-fastsym
   LCORR  =      T    Harris-Foulkes like correction to forces

   POTIM  = 0.5000    time-step for ionic-motion
   TEIN   =    0.0    initial temperature
   TEBEG  =    0.0;   TEEND  =   0.0 temperature during run
   SMASS  =  -3.00    Nose mass-parameter (am)
   estimated Nose-frequenzy (Omega)   =  0.10E-29 period in steps =****** mass=  -0.141E-26a.u.
   SCALEE = 1.0000    scale energy and forces
   NPACO  =    256;   APACO  = 16.0  distance and # of slots for P.C.
   PSTRESS=    0.0 pullay stress

  Mass of Ions in am
   POMASS = 106.42
  Ionic Valenz
   ZVAL   =  16.00
  Atomic Wigner-Seitz radii
   RWIGS  =  -1.00
  virtual crystal weights 
   VCA    =   1.00
   NELECT =     512.0000    total number of electrons
   NUPDOWN=      -1.0000    fix difference up-down

 DOS related values:
   EMIN   =  10.00;   EMAX   =-10.00  energy-range for DOS
   EFERMI =   0.00
   ISMEAR =     1;   SIGMA  =   0.10  broadening in eV -4-tet -1-fermi 0-gaus

 Electronic relaxation 2 (details)
   IALGO  =     38    algorithm
   LDIAG  =      T    sub-space diagonalisation (order eigenvalues)
   LSUBROT=      T    optimize rotation matrix (better conditioning)
   TURBO    =      0    0=normal 1=particle mesh
   IRESTART =      0    0=no restart 2=restart with 2 vectors
   NREBOOT  =      0    no. of reboots
   NMIN     =      0    reboot dimension
   EREF     =   0.00    reference energy to select bands
   IMIX   =      4    mixing-type and parameters
     AMIX     =   0.40;   BMIX     =  1.00
     AMIX_MAG =   1.60;   BMIX_MAG =  1.00
     AMIN     =   0.10
     WC   =   100.;   INIMIX=   1;  MIXPRE=   1;  MAXMIX= -45

 Intra band minimization:
   WEIMIN = 0.0000     energy-eigenvalue tresh-hold
   EBREAK =  0.81E-08  absolut break condition
   DEPER  =   0.30     relativ break condition  

   TIME   =   0.40     timestep for ELM

  volume/ion in A,a.u.               =      15.14       102.17
  Fermi-wavevector in a.u.,A,eV,Ry     =   1.667531  3.151177 37.833172  2.780660
  Thomas-Fermi vector in A             =   2.753537
 
 Write flags
   LWAVE  =      F    write WAVECAR
   LCHARG =      T    write CHGCAR
   LVTOT  =      F    write LOCPOT, total local potential
   LVHAR  =      F    write LOCPOT, Hartree potential only
   LELF   =      F    write electronic localiz. function (ELF)
   LORBIT =      0    0 simple, 1 ext, 2 COOP (PROOUT)


 Dipole corrections
   LMONO  =      F    monopole corrections only (constant potential shift)
   LDIPOL =      F    correct potential (dipole corrections)
   IDIPOL =      0    1-x, 2-y, 3-z, 4-all directions 
   EPSILON=  1.0000000 bulk dielectric constant

 Exchange correlation treatment:
   GGA     =    --    GGA type
   LEXCH   =     8    internal setting for exchange type
   VOSKOWN=      0    Vosko Wilk Nusair interpolation
   LHFCALC =     F    Hartree Fock is set to
   LHFONE  =     F    Hartree Fock one center treatment
   AEXX    =    0.0000 exact exchange contribution

 Linear response parameters
   LEPSILON=     F    determine dielectric tensor
   LRPA    =     F    only Hartree local field effects (RPA)
   LNABLA  =     F    use nabla operator in PAW spheres
   LVEL    =     F    velocity operator in full k-point grid
   LINTERFAST=   F  fast interpolation
   KINTER  =     0    interpolate to denser k-point grid
   CSHIFT  =0.1000    complex shift for real part using Kramers Kronig
   OMEGAMAX=  -1.0    maximum frequency
   DEG_THRESHOLD= 0.2000000E-02 threshold for treating states as degnerate
   RTIME   =    0.100 relaxation time in fs

 Orbital magnetization related:
   ORBITALMAG=     F  switch on orbital magnetization
   LCHIMAG   =     F  perturbation theory with respect to B field
   DQ        =  0.001000  dq finite difference perturbation B field



--------------------------------------------------------------------------------------------------------


 Static calculation
 charge density and potential will be updated during run
 non-spin polarized calculation
 Variant of blocked Davidson
 Davidson routine will perform the subspace rotation
 perform sub-space diagonalisation
    after iterative eigenvector-optimisation
 modified Broyden-mixing scheme, WC =      100.0
 initial mixing is a Kerker type mixing with AMIX =  0.4000 and BMIX =      1.0000
 Hartree-type preconditioning will be used
 using additional bands           51
 real space projection scheme for non local part
 use partial core corrections
 calculate Harris-corrections to forces 
   (improved forces if not selfconsistent)
 use gradient corrections 
 use of overlap-Matrix (Vanderbilt PP)
 Methfessel and Paxton  Order N= 1 SIGMA  =   0.10


--------------------------------------------------------------------------------------------------------


  energy-cutoff  :      300.00
  volume of cell :      484.48
      direct lattice vectors                 reciprocal lattice vectors
     7.854000000 -0.000000000 -0.000000000     0.127323657  0.000000000 -0.000000000
    -0.000000000  7.854000000  0.000000000     0.000000000  0.127323657 -0.000000000
     0.000000000  0.000000000  7.854000000     0.000000000 -0.000000000  0.127323657

  length of vectors
     7.854000000  7.854000000  7.854000000     0.127323657  0.127323657  0.127323657


 
 k-points in units of 2pi/SCALE and weight: Server version 2017.10.18. K-point grid 
   0.03183091  0.01591546  0.11671335       0.042
   0.06366183  0.01591546  0.09549274       0.042
   0.09549274  0.01591546  0.07427213       0.042
   0.00000000  0.01591546  0.05305152       0.042
   0.03183091  0.01591546  0.03183091       0.042
   0.06366183  0.01591546  0.01061030       0.042
   0.09549274  0.01591546  0.11671335       0.042
   0.00000000  0.01591546  0.09549274       0.042
   0.03183091  0.01591546  0.07427213       0.042
   0.06366183  0.01591546  0.05305152       0.042
   0.09549274  0.01591546  0.03183091       0.042
   0.00000000  0.01591546  0.01061030       0.042
   0.03183091  0.04774637  0.09549274       0.042
   0.06366183  0.04774637  0.07427213       0.042
   0.09549274  0.04774637  0.05305152       0.042
   0.00000000  0.04774637  0.03183091       0.042
   0.03183091  0.04774637  0.01061030       0.042
   0.06366183  0.04774637  0.11671335       0.042
   0.09549274  0.04774637  0.09549274       0.042
   0.00000000  0.04774637  0.07427213       0.042
   0.03183091  0.04774637  0.05305152       0.042
   0.06366183  0.04774637  0.03183091       0.042
   0.09549274  0.04774637  0.01061030       0.042
   0.00000000  0.04774637  0.11671335       0.042
 
 k-points in reciprocal lattice and weights: Server version 2017.10.18. K-point grid 
   0.25000000  0.12500000  0.91666667       0.042
   0.50000000  0.12500000  0.75000000       0.042
   0.75000000  0.12500000  0.58333333       0.042
   0.00000000  0.12500000  0.41666667       0.042
   0.25000000  0.12500000  0.25000000       0.042
   0.50000000  0.12500000  0.08333333       0.042
   0.75000000  0.12500000  0.91666667       0.042
   0.00000000  0.12500000  0.75000000       0.042
   0.25000000  0.12500000  0.58333333       0.042
   0.50000000  0.12500000  0.41666667       0.042
   0.75000000  0.12500000  0.25000000       0.042
   0.00000000  0.12500000  0.08333333       0.042
   0.25000000  0.37500000  0.75000000       0.042
   0.50000000  0.37500000  0.58333333       0.042
   0.75000000  0.37500000  0.41666667       0.042
   0.00000000  0.37500000  0.25000000       0.042
   0.25000000  0.37500000  0.08333333       0.042
   0.50000000  0.37500000  0.91666667       0.042
   0.75000000  0.37500000  0.75000000       0.042
   0.00000000  0.37500000  0.58333333       0.042
   0.25000000  0.37500000  0.41666667       0.042
   0.50000000  0.37500000  0.25000000       0.042
   0.75000000  0.37500000  0.08333333       0.042
   0.00000000  0.37500000  0.91666667       0.042
 
 position of ions in fractional coordinates (direct lattice) 
   0.00000000  0.00000000  0.01835980
   0.00000000  0.25000000  0.26620979
   0.00000000  0.50000000  0.47014406
   0.00000000  0.75000000  0.75496433
   0.25000000  0.00000000  0.22076926
   0.25000000  0.25000000  0.51835980
   0.25000000  0.50000000  0.76620979
   0.25000000  0.75000000  0.97014406
   0.50000000  0.00000000  0.50237093
   0.50000000  0.25000000  0.72076926
   0.50000000  0.50000000  0.01835980
   0.50000000  0.75000000  0.26620979
   0.75000000  0.00000000  0.77754925
   0.75000000  0.25000000  0.00237093
   0.75000000  0.50000000  0.22076926
   0.75000000  0.75000000  0.51835980
   0.25000000  0.25000000  0.01835980
   0.25000000  0.50000000  0.26620979
   0.25000000  0.75000000  0.47014406
   0.25000000  0.00000000  0.72076926
   0.50000000  0.25000000  0.22076926
   0.50000000  0.50000000  0.51835980
   0.50000000  0.75000000  0.76620979
   0.50000000  0.00000000  0.00237093
   0.75000000  0.25000000  0.50237093
   0.75000000  0.50000000  0.72076926
   0.75000000  0.75000000  0.01835980
   0.75000000  0.00000000  0.27754925
   0.00000000  0.25000000  0.76620979
   0.00000000  0.50000000  0.97014406
   0.00000000  0.75000000  0.25496433
   0.00000000  0.00000000  0.51835980
 
 position of ions in cartesian coordinates  (Angst):
   0.00000000  0.00000000  0.14419784
   0.00000000  1.96350000  2.09081172
  -0.00000000  3.92700000  3.69251146
   0.00000000  5.89050000  5.92948983
   1.96350000 -0.00000000  1.73392178
   1.96350000  1.96350000  4.07119784
   1.96350000  3.92700000  6.01781172
   1.96350000  5.89050000  7.61951146
   3.92700000  0.00000000  3.94562126
   3.92700000  1.96350000  5.66092178
   3.92700000  3.92700000  0.14419784
   3.92700000  5.89050000  2.09081172
   5.89050000  0.00000000  6.10687184
   5.89050000  1.96350000  0.01862126
   5.89050000  3.92700000  1.73392178
   5.89050000  5.89050000  4.07119784
   1.96350000  1.96350000  0.14419784
   1.96350000  3.92700000  2.09081172
   1.96350000  5.89050000  3.69251146
   1.96350000  0.00000000  5.66092178
   3.92700000  1.96350000  1.73392178
   3.92700000  3.92700000  4.07119784
   3.92700000  5.89050000  6.01781172
   3.92700000 -0.00000000  0.01862126
   5.89050000  1.96350000  3.94562126
   5.89050000  3.92700000  5.66092178
   5.89050000  5.89050000  0.14419784
   5.89050000 -0.00000000  2.17987184
   0.00000000  1.96350000  6.01781172
   0.00000000  3.92700000  7.61951146
  -0.00000000  5.89050000  2.00248983
   0.00000000  0.00000000  4.07119784
 


--------------------------------------------------------------------------------------------------------


 k-point  1 :   0.2500 0.1250 0.9167  plane waves:    5707
 k-point  2 :   0.5000 0.1250 0.7500  plane waves:    5710
 k-point  3 :   0.7500 0.1250 0.5833  plane waves:    5715
 k-point  4 :   0.0000 0.1250 0.4167  plane waves:    5721
 k-point  5 :   0.2500 0.1250 0.2500  plane waves:    5714
 k-point  6 :   0.5000 0.1250 0.0833  plane waves:    5712
 k-point  7 :   0.7500 0.1250 0.9167  plane waves:    5707
 k-point  8 :   0.0000 0.1250 0.7500  plane waves:    5709
 k-point  9 :   0.2500 0.1250 0.5833  plane waves:    5715
 k-point 10 :   0.5000 0.1250 0.4167  plane waves:    5718
 k-point 11 :   0.7500 0.1250 0.2500  plane waves:    5714
 k-point 12 :   0.0000 0.1250 0.0833  plane waves:    5703
 k-point 13 :   0.2500 0.3750 0.7500  plane waves:    5726
 k-point 14 :   0.5000 0.3750 0.5833  plane waves:    5738
 k-point 15 :   0.7500 0.3750 0.4167  plane waves:    5731
 k-point 16 :   0.0000 0.3750 0.2500  plane waves:    5721
 k-point 17 :   0.2500 0.3750 0.0833  plane waves:    5713
 k-point 18 :   0.5000 0.3750 0.9167  plane waves:    5716
 k-point 19 :   0.7500 0.3750 0.7500  plane waves:    5726
 k-point 20 :   0.0000 0.3750 0.5833  plane waves:    5702
 k-point 21 :   0.2500 0.3750 0.4167  plane waves:    5731
 k-point 22 :   0.5000 0.3750 0.2500  plane waves:    5728
 k-point 23 :   0.7500 0.3750 0.0833  plane waves:    5713
 k-point 24 :   0.0000 0.3750 0.9167  plane waves:    5709

 maximum number of plane-waves:      5738
 maximum index in each direction: 
   IXMAX=   11   IYMAX=   10   IZMAX=   11
   IXMIN=  -11   IYMIN=  -11   IZMIN=  -12

 NGX is ok and might be reduce to  46
 NGY is ok and might be reduce to  44
 NGZ is ok and might be reduce to  48

 total amount of memory used by VASP on root node   850028. kBytes
========================================================================

   base      :      30000. kBytes
   nonlr-proj:      27670. kBytes
   grid      :      47517. kBytes
   one-center:        497. kBytes
   wavefun   :     744344. kBytes
 
 For storing wavefunctions  673.92 MBYTES are necessary
 For predicting wavefunctions   69.67 MBYTES are necessary
 Broyden mixing: mesh for mixing (old mesh)
   NGX = 23   NGY = 23   NGZ = 23
  (NGX  = 96   NGY  = 96   NGZ  = 96)
  gives a total of  12167 points

 initial charge density was supplied:
 charge density of overlapping atoms calculated
 number of electron     512.0000000 magnetization 
 keeping initial charge density in first step


--------------------------------------------------------------------------------------------------------


 Maximum index for non-local projection operator         4921
 Maximum index for augmentation-charges         8870 (set IRDMAX)


--------------------------------------------------------------------------------------------------------


 First call to EWALD:  gamma=   0.226
 Maximum number of real-space cells 3x 3x 3
 Maximum number of reciprocal cells 3x 3x 3

    FEWALD:  cpu time    0.01: real time    0.01


----------------------------------------- Iteration    1(   1)  ---------------------------------------


    POTLOK:  cpu time    0.91: real time    0.92
    SETDIJ:  cpu time    0.15: real time    0.15
     EDDAV:  cpu time  738.92: real time  739.00
       DOS:  cpu time    0.04: real time    0.04
    --------------------------------------------
      LOOP:  cpu time  740.03: real time  740.11

 eigenvalue-minimisations  : 15968
 total energy-change (2. order) : 0.5600037E+04  (-0.2281603E+05)
 number of electron     512.0000000 magnetization 
 augmentation part      512.0000000 magnetization 

 Free energy of the ion-electron system (eV)
  ---------------------------------------------------
  alpha Z        PSCENC =      4309.77481446
  Ewald energy   TEWEN  =    -68526.91477566
  -1/2 Hartree   DENC   =    -18199.94274996
  -exchange  EXHF       =         0.00000000
  -V(xc)+E(xc)   XCENC  =      2650.75661132
  PAW double counting   =     72255.69020719   -71333.34611920
  entropy T*S    EENTRO =        -0.00248403
  eigenvalues    EBANDS =       557.38034114
  atomic energy  EATOM  =     83886.64112113
  ---------------------------------------------------
  free energy    TOTEN  =      5600.03696639 eV

  energy without entropy =     5600.03945042  energy(sigma->0) =     5600.03779440


--------------------------------------------------------------------------------------------------------




----------------------------------------- Iteration    1(   2)  ---------------------------------------


     EDDAV:  cpu time  710.78: real time  710.88
       DOS:  cpu time    0.04: real time    0.04
    --------------------------------------------
      LOOP:  cpu time  710.82: real time  710.92

 eigenvalue-minimisations  : 15174
 total energy-change (2. order) :-0.5435868E+04  (-0.5267151E+04)
 number of electron     512.0000000 magnetization 
 augmentation part      512.0000000 magnetization 

 Free energy of the ion-electron system (eV)
  ---------------------------------------------------
  alpha Z        PSCENC =      4309.77481446
  Ewald energy   TEWEN  =    -68526.91477566
  -1/2 Hartree   DENC   =    -18199.94274996
  -exchange  EXHF       =         0.00000000
  -V(xc)+E(xc)   XCENC  =      2650.75661132
  PAW double counting   =     72255.69020719   -71333.34611920
  entropy T*S    EENTRO =         0.00074601
  eigenvalues    EBANDS =     -4878.49138447
  atomic energy  EATOM  =     83886.64112113
  ---------------------------------------------------
  free energy    TOTEN  =       164.16847083 eV

  energy without entropy =      164.16772481  energy(sigma->0) =      164.16822215


--------------------------------------------------------------------------------------------------------




----------------------------------------- Iteration    1(   3)  ---------------------------------------


     EDDAV:  cpu time  727.60: real time  727.68
       DOS:  cpu time    0.04: real time    0.04
    --------------------------------------------
      LOOP:  cpu time  727.64: real time  727.73

 eigenvalue-minimisations  : 15645
 total energy-change (2. order) :-0.3262615E+03  (-0.2953111E+03)
 number of electron     512.0000000 magnetization 
 augmentation part      512.0000000 magnetization 

 Free energy of the ion-electron system (eV)
  ---------------------------------------------------
  alpha Z        PSCENC =      4309.77481446
  Ewald energy   TEWEN  =    -68526.91477566
  -1/2 Hartree   DENC   =    -18199.94274996
  -exchange  EXHF       =         0.00000000
  -V(xc)+E(xc)   XCENC  =      2650.75661132
  PAW double counting   =     72255.69020719   -71333.34611920
  entropy T*S    EENTRO =        -0.01269532
  eigenvalues    EBANDS =     -5204.73944791
  atomic energy  EATOM  =     83886.64112113
  ---------------------------------------------------
  free energy    TOTEN  =      -162.09303395 eV

  energy without entropy =     -162.08033862  energy(sigma->0) =     -162.08880217


--------------------------------------------------------------------------------------------------------




----------------------------------------- Iteration    1(   4)  ---------------------------------------


     EDDAV:  cpu time  725.73: real time  725.81
       DOS:  cpu time    0.04: real time    0.04
    --------------------------------------------
      LOOP:  cpu time  725.77: real time  725.86

 eigenvalue-minimisations  : 15560
 total energy-change (2. order) :-0.8491201E+01  (-0.8403120E+01)
 number of electron     512.0000000 magnetization 
 augmentation part      512.0000000 magnetization 

 Free energy of the ion-electron system (eV)
  ---------------------------------------------------
  alpha Z        PSCENC =      4309.77481446
  Ewald energy   TEWEN  =    -68526.91477566
  -1/2 Hartree   DENC   =    -18199.94274996
  -exchange  EXHF       =         0.00000000
  -V(xc)+E(xc)   XCENC  =      2650.75661132
  PAW double counting   =     72255.69020719   -71333.34611920
  entropy T*S    EENTRO =        -0.01149909
  eigenvalues    EBANDS =     -5213.23184471
  atomic energy  EATOM  =     83886.64112113
  ---------------------------------------------------
  free energy    TOTEN  =      -170.58423452 eV

  energy without entropy =     -170.57273543  energy(sigma->0) =     -170.58040149


--------------------------------------------------------------------------------------------------------




----------------------------------------- Iteration    1(   5)  ---------------------------------------


     EDDAV:  cpu time  726.46: real time  726.54
       DOS:  cpu time    0.04: real time    0.04
    CHARGE:  cpu time   46.05: real time   46.06
    MIXING:  cpu time    0.02: real time    0.02
    --------------------------------------------
      LOOP:  cpu time  772.58: real time  772.67

 eigenvalue-minimisations  : 15496
 total energy-change (2. order) :-0.8470577E-01  (-0.8461724E-01)
 number of electron     511.9999151 magnetization 
 augmentation part      239.2729135 magnetization 

 Broyden mixing:
  rms(total) = 0.27394E+01    rms(broyden)= 0.27365E+01
  rms(prec ) = 0.34315E+01
  weight for this iteration     100.00

 Free energy of the ion-electron system (eV)
  ---------------------------------------------------
  alpha Z        PSCENC =      4309.77481446
  Ewald energy   TEWEN  =    -68526.91477566
  -1/2 Hartree   DENC   =    -18199.94274996
  -exchange  EXHF       =         0.00000000
  -V(xc)+E(xc)   XCENC  =      2650.75661132
  PAW double counting   =     72255.69020719   -71333.34611920
  entropy T*S    EENTRO =        -0.01150293
  eigenvalues    EBANDS =     -5213.31654665
  atomic energy  EATOM  =     83886.64112113
  ---------------------------------------------------
  free energy    TOTEN  =      -170.66894029 eV

  energy without entropy =     -170.65743736  energy(sigma->0) =     -170.66510598


--------------------------------------------------------------------------------------------------------




----------------------------------------- Iteration    1(   6)  ---------------------------------------


    POTLOK:  cpu time    0.93: real time    0.93
    SETDIJ:  cpu time    0.16: real time    0.16
     EDDAV:  cpu time  718.10: real time  718.19
       DOS:  cpu time    0.04: real time    0.04
    CHARGE:  cpu time   45.56: real time   45.56
    MIXING:  cpu time    0.02: real time    0.02
    --------------------------------------------
      LOOP:  cpu time  764.81: real time  764.92

 eigenvalue-minimisations  : 15421
 total energy-change (2. order) : 0.7593321E+01  (-0.2841750E+01)
 number of electron     511.9999134 magnetization 
 augmentation part      245.3295168 magnetization 

 Broyden mixing:
  rms(total) = 0.72929E+00    rms(broyden)= 0.72897E+00
  rms(prec ) = 0.99708E+00
  weight for this iteration     100.00

 eigenvalues of (default mixing * dielectric matrix)
  average eigenvalue GAMMA=   1.1348
  1.1348

 Free energy of the ion-electron system (eV)
  ---------------------------------------------------
  alpha Z        PSCENC =      4309.77481446
  Ewald energy   TEWEN  =    -68526.91477566
  -1/2 Hartree   DENC   =    -17677.11918142
  -exchange  EXHF       =         0.00000000
  -V(xc)+E(xc)   XCENC  =      2627.91059226
  PAW double counting   =     74099.66483287   -73240.05391736
  entropy T*S    EENTRO =        -0.02367790
  eigenvalues    EBANDS =     -5642.95542724
  atomic energy  EATOM  =     83886.64112113
  ---------------------------------------------------
  free energy    TOTEN  =      -163.07561886 eV

  energy without entropy =     -163.05194096  energy(sigma->0) =     -163.06772623


--------------------------------------------------------------------------------------------------------




----------------------------------------- Iteration    1(   7)  ---------------------------------------


    POTLOK:  cpu time    0.93: real time    0.93
    SETDIJ:  cpu time    0.17: real time    0.17
     EDDAV:  cpu time  721.82: real time  721.90
       DOS:  cpu time    0.04: real time    0.04
    CHARGE:  cpu time   45.62: real time   45.63
    MIXING:  cpu time    0.02: real time    0.02
    --------------------------------------------
      LOOP:  cpu time  768.60: real time  768.70

 eigenvalue-minimisations  : 15592
 total energy-change (2. order) :-0.1632256E+01  (-0.4015349E+00)
 number of electron     511.9999138 magnetization 
 augmentation part      245.2662276 magnetization 

 Broyden mixing:
  rms(total) = 0.13049E+01    rms(broyden)= 0.13029E+01
  rms(prec ) = 0.28209E+01
  weight for this iteration     100.00

 eigenvalues of (default mixing * dielectric matrix)
  average eigenvalue GAMMA=   0.7249
  1.1957  0.2540

 Free energy of the ion-electron system (eV)
  ---------------------------------------------------
  alpha Z        PSCENC =      4309.77481446
  Ewald energy   TEWEN  =    -68526.91477566
  -1/2 Hartree   DENC   =    -17664.57162467
  -exchange  EXHF       =         0.00000000
  -V(xc)+E(xc)   XCENC  =      2627.19774987
  PAW double counting   =     75178.97667358   -74333.01594969
  entropy T*S    EENTRO =        -0.02390133
  eigenvalues    EBANDS =     -5642.77198286
  atomic energy  EATOM  =     83886.64112113
  ---------------------------------------------------
  free energy    TOTEN  =      -164.70787517 eV

  energy without entropy =     -164.68397384  energy(sigma->0) =     -164.69990806


--------------------------------------------------------------------------------------------------------




----------------------------------------- Iteration    1(   8)  ---------------------------------------


    POTLOK:  cpu time    0.94: real time    0.94
    SETDIJ:  cpu time    0.17: real time    0.17
     EDDAV:  cpu time  749.03: real time  749.16
       DOS:  cpu time    0.04: real time    0.04
    CHARGE:  cpu time   45.55: real time   45.55
    MIXING:  cpu time    0.02: real time    0.02
    --------------------------------------------
      LOOP:  cpu time  795.76: real time  795.89

 eigenvalue-minimisations  : 16375
 total energy-change (2. order) : 0.1871367E+01  (-0.2464768E+00)
 number of electron     511.9999134 magnetization 
 augmentation part      245.2907799 magnetization 

 Broyden mixing:
  rms(total) = 0.40741E+00    rms(broyden)= 0.40370E+00
  rms(prec ) = 0.57067E+00
  weight for this iteration     100.00

 eigenvalues of (default mixing * dielectric matrix)
  average eigenvalue GAMMA=   0.8606
  1.5597  0.8164  0.2058

 Free energy of the ion-electron system (eV)
  ---------------------------------------------------
  alpha Z        PSCENC =      4309.77481446
  Ewald energy   TEWEN  =    -68526.91477566
  -1/2 Hartree   DENC   =    -17660.46015129
  -exchange  EXHF       =         0.00000000
  -V(xc)+E(xc)   XCENC  =      2627.00481545
  PAW double counting   =     75406.29648702   -74563.11041644
  entropy T*S    EENTRO =        -0.02386674
  eigenvalues    EBANDS =     -5642.04453651
  atomic energy  EATOM  =     83886.64112113
  ---------------------------------------------------
  free energy    TOTEN  =      -162.83650857 eV

  energy without entropy =     -162.81264183  energy(sigma->0) =     -162.82855299


--------------------------------------------------------------------------------------------------------




----------------------------------------- Iteration    1(   9)  ---------------------------------------


    POTLOK:  cpu time    0.94: real time    0.94
    SETDIJ:  cpu time    0.17: real time    0.17
     EDDAV:  cpu time  724.63: real time  724.72
       DOS:  cpu time    0.04: real time    0.04
    CHARGE:  cpu time   45.50: real time   45.51
    MIXING:  cpu time    0.02: real time    0.02
    --------------------------------------------
      LOOP:  cpu time  771.31: real time  771.45

 eigenvalue-minimisations  : 15696
 total energy-change (2. order) :-0.3152295E-01  (-0.6489114E-01)
 number of electron     511.9999134 magnetization 
 augmentation part      245.2810189 magnetization 

 Broyden mixing:
  rms(total) = 0.38198E+00    rms(broyden)= 0.38133E+00
  rms(prec ) = 0.66080E+00
  weight for this iteration     100.00

 eigenvalues of (default mixing * dielectric matrix)
  average eigenvalue GAMMA=   0.9621
  2.4072  0.9802  0.2072  0.2537

 Free energy of the ion-electron system (eV)
  ---------------------------------------------------
  alpha Z        PSCENC =      4309.77481446
  Ewald energy   TEWEN  =    -68526.91477566
  -1/2 Hartree   DENC   =    -17653.53419851
  -exchange  EXHF       =         0.00000000
  -V(xc)+E(xc)   XCENC  =      2626.67191849
  PAW double counting   =     75818.51195955   -74979.59198290
  entropy T*S    EENTRO =        -0.01944115
  eigenvalues    EBANDS =     -5644.40744692
  atomic energy  EATOM  =     83886.64112113
  ---------------------------------------------------
  free energy    TOTEN  =      -162.86803152 eV

  energy without entropy =     -162.84859037  energy(sigma->0) =     -162.86155113


--------------------------------------------------------------------------------------------------------




----------------------------------------- Iteration    1(  10)  ---------------------------------------


    POTLOK:  cpu time    0.94: real time    0.94
    SETDIJ:  cpu time    0.17: real time    0.17
     EDDAV:  cpu time  720.93: real time  721.05
       DOS:  cpu time    0.04: real time    0.04
    CHARGE:  cpu time   45.51: real time   45.51
    MIXING:  cpu time    0.02: real time    0.02
    --------------------------------------------
      LOOP:  cpu time  767.62: real time  767.75

 eigenvalue-minimisations  : 15573
 total energy-change (2. order) : 0.4695280E-01  (-0.3513782E-01)
 number of electron     511.9999134 magnetization 
 augmentation part      245.2974071 magnetization 

 Broyden mixing:
  rms(total) = 0.27217E+00    rms(broyden)= 0.27142E+00
  rms(prec ) = 0.56899E+00
  weight for this iteration     100.00

 eigenvalues of (default mixing * dielectric matrix)
  average eigenvalue GAMMA=   0.8297
  2.4826  0.9860  0.2686  0.2057  0.2057

 Free energy of the ion-electron system (eV)
  ---------------------------------------------------
  alpha Z        PSCENC =      4309.77481446
  Ewald energy   TEWEN  =    -68526.91477566
  -1/2 Hartree   DENC   =    -17639.39461228
  -exchange  EXHF       =         0.00000000
  -V(xc)+E(xc)   XCENC  =      2625.99162635
  PAW double counting   =     76635.11545181   -75804.32629019
  entropy T*S    EENTRO =        -0.02215882
  eigenvalues    EBANDS =     -5649.68625552
  atomic energy  EATOM  =     83886.64112113
  ---------------------------------------------------
  free energy    TOTEN  =      -162.82107872 eV

  energy without entropy =     -162.79891989  energy(sigma->0) =     -162.81369244


--------------------------------------------------------------------------------------------------------




----------------------------------------- Iteration    1(  11)  ---------------------------------------


    POTLOK:  cpu time    0.94: real time    0.94
    SETDIJ:  cpu time    0.17: real time    0.17
     EDDAV:  cpu time  718.94: real time  719.02
       DOS:  cpu time    0.04: real time    0.04
    CHARGE:  cpu time   45.28: real time   45.33
    MIXING:  cpu time    0.02: real time    0.02
    --------------------------------------------
      LOOP:  cpu time  765.40: real time  765.53

 eigenvalue-minimisations  : 15512
 total energy-change (2. order) : 0.7822436E-01  (-0.1480482E-01)
 number of electron     511.9999134 magnetization 
 augmentation part      245.3018252 magnetization 

 Broyden mixing:
  rms(total) = 0.59567E-01    rms(broyden)= 0.58307E-01
  rms(prec ) = 0.10722E+00
  weight for this iteration     100.00

 eigenvalues of (default mixing * dielectric matrix)
  average eigenvalue GAMMA=   0.7789
  2.4937  0.9856  0.5058  0.2948  0.2071  0.1862

 Free energy of the ion-electron system (eV)
  ---------------------------------------------------
  alpha Z        PSCENC =      4309.77481446
  Ewald energy   TEWEN  =    -68526.91477566
  -1/2 Hartree   DENC   =    -17636.87994705
  -exchange  EXHF       =         0.00000000
  -V(xc)+E(xc)   XCENC  =      2625.87306501
  PAW double counting   =     76781.10732395   -75951.50226305
  entropy T*S    EENTRO =        -0.02107866
  eigenvalues    EBANDS =     -5650.82111450
  atomic energy  EATOM  =     83886.64112113
  ---------------------------------------------------
  free energy    TOTEN  =      -162.74285436 eV

  energy without entropy =     -162.72177570  energy(sigma->0) =     -162.73582814


--------------------------------------------------------------------------------------------------------




----------------------------------------- Iteration    1(  12)  ---------------------------------------


    POTLOK:  cpu time    0.95: real time    0.95
    SETDIJ:  cpu time    0.17: real time    0.17
     EDDAV:  cpu time  719.50: real time  719.58
       DOS:  cpu time    0.04: real time    0.04
    CHARGE:  cpu time   45.29: real time   45.29
    MIXING:  cpu time    0.02: real time    0.02
    --------------------------------------------
      LOOP:  cpu time  765.98: real time  766.07

 eigenvalue-minimisations  : 15533
 total energy-change (2. order) : 0.1006939E-02  (-0.2422322E-02)
 number of electron     511.9999134 magnetization 
 augmentation part      245.3070334 magnetization 

 Broyden mixing:
  rms(total) = 0.40955E-01    rms(broyden)= 0.40830E-01
  rms(prec ) = 0.74861E-01
  weight for this iteration     100.00

 eigenvalues of (default mixing * dielectric matrix)
  average eigenvalue GAMMA=   0.7737
  2.4969  0.9900  0.9900  0.3018  0.2386  0.2167  0.1818

 Free energy of the ion-electron system (eV)
  ---------------------------------------------------
  alpha Z        PSCENC =      4309.77481446
  Ewald energy   TEWEN  =    -68526.91477566
  -1/2 Hartree   DENC   =    -17636.55159344
  -exchange  EXHF       =         0.00000000
  -V(xc)+E(xc)   XCENC  =      2625.86097172
  PAW double counting   =     76806.38887601   -75976.45422966
  entropy T*S    EENTRO =        -0.02118304
  eigenvalues    EBANDS =     -5651.46584894
  atomic energy  EATOM  =     83886.64112113
  ---------------------------------------------------
  free energy    TOTEN  =      -162.74184742 eV

  energy without entropy =     -162.72066438  energy(sigma->0) =     -162.73478641


--------------------------------------------------------------------------------------------------------




----------------------------------------- Iteration    1(  13)  ---------------------------------------


    POTLOK:  cpu time    0.94: real time    0.94
    SETDIJ:  cpu time    0.17: real time    0.17
     EDDAV:  cpu time  720.71: real time  720.83
       DOS:  cpu time    0.04: real time    0.04
    CHARGE:  cpu time   45.27: real time   45.29
    MIXING:  cpu time    0.02: real time    0.02
    --------------------------------------------
      LOOP:  cpu time  767.17: real time  767.31

 eigenvalue-minimisations  : 15576
 total energy-change (2. order) : 0.1175003E-02  (-0.6591914E-03)
 number of electron     511.9999134 magnetization 
 augmentation part      245.3146282 magnetization 

 Broyden mixing:
  rms(total) = 0.23683E-01    rms(broyden)= 0.23584E-01
  rms(prec ) = 0.47249E-01
  weight for this iteration     100.00

 eigenvalues of (default mixing * dielectric matrix)
  average eigenvalue GAMMA=   0.7447
  2.4999  1.1539  0.9899  0.3962  0.2835  0.2461  0.2057  0.1823

 Free energy of the ion-electron system (eV)
  ---------------------------------------------------
  alpha Z        PSCENC =      4309.77481446
  Ewald energy   TEWEN  =    -68526.91477566
  -1/2 Hartree   DENC   =    -17636.50946629
  -exchange  EXHF       =         0.00000000
  -V(xc)+E(xc)   XCENC  =      2625.86363738
  PAW double counting   =     76830.18394963   -75999.51801647
  entropy T*S    EENTRO =        -0.02134049
  eigenvalues    EBANDS =     -5652.24059611
  atomic energy  EATOM  =     83886.64112113
  ---------------------------------------------------
  free energy    TOTEN  =      -162.74067242 eV

  energy without entropy =     -162.71933193  energy(sigma->0) =     -162.73355892


--------------------------------------------------------------------------------------------------------




----------------------------------------- Iteration    1(  14)  ---------------------------------------


    POTLOK:  cpu time    0.94: real time    0.94
    SETDIJ:  cpu time    0.17: real time    0.17
     EDDAV:  cpu time  720.60: real time  720.67
       DOS:  cpu time    0.04: real time    0.04
    CHARGE:  cpu time   45.40: real time   45.41
    MIXING:  cpu time    0.02: real time    0.02
    --------------------------------------------
      LOOP:  cpu time  767.17: real time  767.28

 eigenvalue-minimisations  : 15541
 total energy-change (2. order) : 0.3888187E-03  (-0.2332233E-03)
 number of electron     511.9999134 magnetization 
 augmentation part      245.3164976 magnetization 

 Broyden mixing:
  rms(total) = 0.13749E-01    rms(broyden)= 0.13679E-01
  rms(prec ) = 0.26532E-01
  weight for this iteration     100.00

 eigenvalues of (default mixing * dielectric matrix)
  average eigenvalue GAMMA=   0.8127
  2.5316  1.7695  0.9317  0.9317  0.3051  0.2572  0.2134  0.1810  0.1934

 Free energy of the ion-electron system (eV)
  ---------------------------------------------------
  alpha Z        PSCENC =      4309.77481446
  Ewald energy   TEWEN  =    -68526.91477566
  -1/2 Hartree   DENC   =    -17636.70935171
  -exchange  EXHF       =         0.00000000
  -V(xc)+E(xc)   XCENC  =      2625.87415230
  PAW double counting   =     76839.42696763   -76008.38161942
  entropy T*S    EENTRO =        -0.02140966
  eigenvalues    EBANDS =     -5652.43018268
  atomic energy  EATOM  =     83886.64112113
  ---------------------------------------------------
  free energy    TOTEN  =      -162.74028360 eV

  energy without entropy =     -162.71887394  energy(sigma->0) =     -162.73314705


--------------------------------------------------------------------------------------------------------




----------------------------------------- Iteration    1(  15)  ---------------------------------------


    POTLOK:  cpu time    0.94: real time    0.94
    SETDIJ:  cpu time    0.17: real time    0.17
     EDDAV:  cpu time  719.14: real time  719.25
       DOS:  cpu time    0.04: real time    0.04
    CHARGE:  cpu time   46.05: real time   46.06
    MIXING:  cpu time    0.03: real time    0.03
    --------------------------------------------
      LOOP:  cpu time  766.37: real time  766.50

 eigenvalue-minimisations  : 15496
 total energy-change (2. order) : 0.2624164E-04  (-0.9871742E-04)
 number of electron     511.9999134 magnetization 
 augmentation part      245.3161870 magnetization 

 Broyden mixing:
  rms(total) = 0.11665E-01    rms(broyden)= 0.11639E-01
  rms(prec ) = 0.21607E-01
  weight for this iteration     100.00

 eigenvalues of (default mixing * dielectric matrix)
  average eigenvalue GAMMA=   0.7833
  2.5514  1.9143  0.9613  0.9613  0.3281  0.2689  0.2689  0.2055  0.1950  0.1782

 Free energy of the ion-electron system (eV)
  ---------------------------------------------------
  alpha Z        PSCENC =      4309.77481446
  Ewald energy   TEWEN  =    -68526.91477566
  -1/2 Hartree   DENC   =    -17637.39947260
  -exchange  EXHF       =         0.00000000
  -V(xc)+E(xc)   XCENC  =      2625.90651303
  PAW double counting   =     76856.06052116   -76024.28940657
  entropy T*S    EENTRO =        -0.02142699
  eigenvalues    EBANDS =     -5652.49814532
  atomic energy  EATOM  =     83886.64112113
  ---------------------------------------------------
  free energy    TOTEN  =      -162.74025736 eV

  energy without entropy =     -162.71883037  energy(sigma->0) =     -162.73311503


--------------------------------------------------------------------------------------------------------




----------------------------------------- Iteration    1(  16)  ---------------------------------------


    POTLOK:  cpu time    0.93: real time    0.93
    SETDIJ:  cpu time    0.17: real time    0.17
     EDDAV:  cpu time  716.19: real time  716.27
       DOS:  cpu time    0.04: real time    0.04
    CHARGE:  cpu time   46.35: real time   46.35
    MIXING:  cpu time    0.03: real time    0.03
    --------------------------------------------
      LOOP:  cpu time  763.72: real time  763.80

 eigenvalue-minimisations  : 15520
 total energy-change (2. order) : 0.1373035E-03  (-0.3922224E-04)
 number of electron     511.9999134 magnetization 
 augmentation part      245.3152746 magnetization 

 Broyden mixing:
  rms(total) = 0.40089E-02    rms(broyden)= 0.39792E-02
  rms(prec ) = 0.78933E-02
  weight for this iteration     100.00

 eigenvalues of (default mixing * dielectric matrix)
  average eigenvalue GAMMA=   0.7666
  2.5516  1.9113  0.9689  0.9689  0.6315  0.3068  0.2764  0.2364  0.2133  0.1889
  0.1789

 Free energy of the ion-electron system (eV)
  ---------------------------------------------------
  alpha Z        PSCENC =      4309.77481446
  Ewald energy   TEWEN  =    -68526.91477566
  -1/2 Hartree   DENC   =    -17637.68851620
  -exchange  EXHF       =         0.00000000
  -V(xc)+E(xc)   XCENC  =      2625.91933384
  PAW double counting   =     76861.10920889   -76029.10532165
  entropy T*S    EENTRO =        -0.02142728
  eigenvalues    EBANDS =     -5652.45455759
  atomic energy  EATOM  =     83886.64112113
  ---------------------------------------------------
  free energy    TOTEN  =      -162.74012005 eV

  energy without entropy =     -162.71869277  energy(sigma->0) =     -162.73297763


--------------------------------------------------------------------------------------------------------




----------------------------------------- Iteration    1(  17)  ---------------------------------------


    POTLOK:  cpu time    0.93: real time    0.93
    SETDIJ:  cpu time    0.17: real time    0.17
     EDDAV:  cpu time  636.46: real time  636.53
       DOS:  cpu time    0.04: real time    0.04
    CHARGE:  cpu time   46.81: real time   46.82
    MIXING:  cpu time    0.03: real time    0.03
    --------------------------------------------
      LOOP:  cpu time  684.44: real time  684.52

 eigenvalue-minimisations  : 13272
 total energy-change (2. order) :-0.7191557E-07  (-0.1348632E-04)
 number of electron     511.9999134 magnetization 
 augmentation part      245.3147340 magnetization 

 Broyden mixing:
  rms(total) = 0.44903E-02    rms(broyden)= 0.44807E-02
  rms(prec ) = 0.92671E-02
  weight for this iteration     100.00

 eigenvalues of (default mixing * dielectric matrix)
  average eigenvalue GAMMA=   0.7609
  2.5481  1.8665  1.1976  1.0037  0.9287  0.3158  0.2806  0.2473  0.2126  0.1905
  0.1789  0.1609

 Free energy of the ion-electron system (eV)
  ---------------------------------------------------
  alpha Z        PSCENC =      4309.77481446
  Ewald energy   TEWEN  =    -68526.91477566
  -1/2 Hartree   DENC   =    -17637.80222100
  -exchange  EXHF       =         0.00000000
  -V(xc)+E(xc)   XCENC  =      2625.92398155
  PAW double counting   =     76861.93905140   -76029.86598241
  entropy T*S    EENTRO =        -0.02141993
  eigenvalues    EBANDS =     -5652.41468967
  atomic energy  EATOM  =     83886.64112113
  ---------------------------------------------------
  free energy    TOTEN  =      -162.74012013 eV

  energy without entropy =     -162.71870020  energy(sigma->0) =     -162.73298015


--------------------------------------------------------------------------------------------------------




----------------------------------------- Iteration    1(  18)  ---------------------------------------


    POTLOK:  cpu time    0.95: real time    0.95
    SETDIJ:  cpu time    0.17: real time    0.17
     EDDAV:  cpu time  465.55: real time  465.60
       DOS:  cpu time    0.04: real time    0.04
    CHARGE:  cpu time   44.78: real time   44.78
    MIXING:  cpu time    0.03: real time    0.03
    --------------------------------------------
      LOOP:  cpu time  511.52: real time  511.57

 eigenvalue-minimisations  :  9256
 total energy-change (2. order) : 0.1975126E-04  (-0.6899023E-05)
 number of electron     511.9999134 magnetization 
 augmentation part      245.3140084 magnetization 

 Broyden mixing:
  rms(total) = 0.26001E-02    rms(broyden)= 0.25922E-02
  rms(prec ) = 0.48952E-02
  weight for this iteration     100.00

 eigenvalues of (default mixing * dielectric matrix)
  average eigenvalue GAMMA=   0.7374
  2.5462  1.8322  1.4198  0.9626  0.9508  0.3323  0.2970  0.2573  0.2573  0.2084
  0.1915  0.1794  0.1512

 Free energy of the ion-electron system (eV)
  ---------------------------------------------------
  alpha Z        PSCENC =      4309.77481446
  Ewald energy   TEWEN  =    -68526.91477566
  -1/2 Hartree   DENC   =    -17638.00623656
  -exchange  EXHF       =         0.00000000
  -V(xc)+E(xc)   XCENC  =      2625.93219726
  PAW double counting   =     76863.14595651   -76030.94757444
  entropy T*S    EENTRO =        -0.02141682
  eigenvalues    EBANDS =     -5652.34418627
  atomic energy  EATOM  =     83886.64112113
  ---------------------------------------------------
  free energy    TOTEN  =      -162.74010038 eV

  energy without entropy =     -162.71868356  energy(sigma->0) =     -162.73296144


--------------------------------------------------------------------------------------------------------




----------------------------------------- Iteration    1(  19)  ---------------------------------------


    POTLOK:  cpu time    0.92: real time    0.92
    SETDIJ:  cpu time    0.16: real time    0.16
     EDDAV:  cpu time  414.31: real time  414.35
       DOS:  cpu time    0.04: real time    0.04
    CHARGE:  cpu time   43.72: real time   43.72
    MIXING:  cpu time    0.03: real time    0.03
    --------------------------------------------
      LOOP:  cpu time  459.17: real time  459.22

 eigenvalue-minimisations  :  8024
 total energy-change (2. order) : 0.1017956E-04  (-0.2062476E-05)
 number of electron     511.9999134 magnetization 
 augmentation part      245.3137807 magnetization 

 Broyden mixing:
  rms(total) = 0.10412E-02    rms(broyden)= 0.10345E-02
  rms(prec ) = 0.18111E-02
  weight for this iteration     100.00

 eigenvalues of (default mixing * dielectric matrix)
  average eigenvalue GAMMA=   0.7505
  2.5460  1.9330  1.6544  0.9538  0.8998  0.7045  0.3164  0.2873  0.2506  0.2337
  0.2093  0.1907  0.1788  0.1488

 Free energy of the ion-electron system (eV)
  ---------------------------------------------------
  alpha Z        PSCENC =      4309.77481446
  Ewald energy   TEWEN  =    -68526.91477566
  -1/2 Hartree   DENC   =    -17638.08561723
  -exchange  EXHF       =         0.00000000
  -V(xc)+E(xc)   XCENC  =      2625.93544008
  PAW double counting   =     76863.69530603   -76031.43802473
  entropy T*S    EENTRO =        -0.02142174
  eigenvalues    EBANDS =     -5652.32693253
  atomic energy  EATOM  =     83886.64112113
  ---------------------------------------------------
  free energy    TOTEN  =      -162.74009020 eV

  energy without entropy =     -162.71866845  energy(sigma->0) =     -162.73294961


--------------------------------------------------------------------------------------------------------




----------------------------------------- Iteration    1(  20)  ---------------------------------------


    POTLOK:  cpu time    0.90: real time    0.90
    SETDIJ:  cpu time    0.15: real time    0.15
     EDDAV:  cpu time  382.89: real time  382.97
       DOS:  cpu time    0.04: real time    0.04
    --------------------------------------------
      LOOP:  cpu time  383.98: real time  384.06

 eigenvalue-minimisations  :  7776
 total energy-change (2. order) : 0.3505644E-05  (-0.1035298E-05)
 number of electron     511.9999134 magnetization 
 augmentation part      245.3137807 magnetization 

 Free energy of the ion-electron system (eV)
  ---------------------------------------------------
  alpha Z        PSCENC =      4309.77481446
  Ewald energy   TEWEN  =    -68526.91477566
  -1/2 Hartree   DENC   =    -17638.14911410
  -exchange  EXHF       =         0.00000000
  -V(xc)+E(xc)   XCENC  =      2625.93811399
  PAW double counting   =     76864.19695071   -76031.87978528
  entropy T*S    EENTRO =        -0.02142140
  eigenvalues    EBANDS =     -5652.32599054
  atomic energy  EATOM  =     83886.64112113
  ---------------------------------------------------
  free energy    TOTEN  =      -162.74008669 eV

  energy without entropy =     -162.71866529  energy(sigma->0) =     -162.73294622


--------------------------------------------------------------------------------------------------------




 average (electrostatic) potential at core
  the test charge radii are     1.0504
  (the norm of the test charge is              1.0000)
       1 -74.6442       2 -74.6361       3 -74.7147       4 -74.6456       5 -74.7215
       6 -74.7124       7 -74.7187       8 -74.7163       9 -74.6509      10 -74.7574
      11 -74.7164      12 -74.6379      13 -74.6307      14 -74.6501      15 -74.7202
      16 -74.6443      17 -74.7130      18 -74.7181      19 -74.7156      20 -74.7211
      21 -74.7579      22 -74.7159      23 -74.6384      24 -74.6517      25 -74.6493
      26 -74.7197      27 -74.6447      28 -74.6301      29 -74.6366      30 -74.7155
      31 -74.6454      32 -74.6437
 
 
 
 E-fermi :   9.2737     XC(G=0): -13.1772     alpha+bet :-16.1055


 k-point   1 :       0.2500    0.1250    0.9167
  band No.  band energies     occupation 
      1     -40.9009      2.00000
      2     -40.8890      2.00000
      3     -40.8857      2.00000
      4     -40.8806      2.00000
      5     -40.8785      2.00000
      6     -40.8559      2.00000
      7     -40.8408      2.00000
      8     -40.8234      2.00000
      9     -40.8209      2.00000
     10     -40.8086      2.00000
     11     -40.7982      2.00000
     12     -40.7887      2.00000
     13     -40.7883      2.00000
     14     -40.7834      2.00000
     15     -40.7718      2.00000
     16     -40.7446      2.00000
     17     -40.7353      2.00000
     18     -40.7215      2.00000
     19     -40.7176      2.00000
     20     -40.6978      2.00000
     21     -40.6810      2.00000
     22     -40.6776      2.00000
     23     -40.6705      2.00000
     24     -40.6629      2.00000
     25     -40.6582      2.00000
     26     -40.6520      2.00000
     27     -40.6439      2.00000
     28     -40.6417      2.00000
     29     -40.6226      2.00000
     30     -40.6158      2.00000
     31     -40.5990      2.00000
     32     -40.5919      2.00000
     33     -40.5852      2.00000
     34     -40.5834      2.00000
     35     -40.5741      2.00000
     36     -40.5717      2.00000
     37     -40.5634      2.00000
     38     -40.5623      2.00000
     39     -40.5557      2.00000
     40     -40.5464      2.00000
     41     -40.5447      2.00000
     42     -40.5360      2.00000
     43     -40.5319      2.00000
     44     -40.5315      2.00000
     45     -40.5221      2.00000
     46     -40.5205      2.00000
     47     -40.5181      2.00000
     48     -40.5113      2.00000
     49     -40.5061      2.00000
     50     -40.5014      2.00000
     51     -40.4984      2.00000
     52     -40.4939      2.00000
     53     -40.4927      2.00000
     54     -40.4927      2.00000
     55     -40.4834      2.00000
     56     -40.4832      2.00000
     57     -40.4758      2.00000
     58     -40.4730      2.00000
     59     -40.4720      2.00000
     60     -40.4666      2.00000
     61     -40.4661      2.00000
     62     -40.4631      2.00000
     63     -40.4565      2.00000
     64     -40.4548      2.00000
     65     -40.4501      2.00000
     66     -40.4482      2.00000
     67     -40.4448      2.00000
     68     -40.4407      2.00000
     69     -40.4384      2.00000
     70     -40.4316      2.00000
     71     -40.4288      2.00000
     72     -40.4252      2.00000
     73     -40.4241      2.00000
     74     -40.4210      2.00000
     75     -40.4181      2.00000
     76     -40.4138      2.00000
     77     -40.4124      2.00000
     78     -40.4092      2.00000
     79     -40.4080      2.00000
     80     -40.4026      2.00000
     81     -40.4019      2.00000
     82     -40.3967      2.00000
     83     -40.3930      2.00000
     84     -40.3898      2.00000
     85     -40.3879      2.00000
     86     -40.3836      2.00000
     87     -40.3819      2.00000
     88     -40.3767      2.00000
     89     -40.3750      2.00000
     90     -40.3699      2.00000
     91     -40.3575      2.00000
     92     -40.3551      2.00000
     93     -40.3525      2.00000
     94     -40.3509      2.00000
     95     -40.3487      2.00000
     96     -40.3476      2.00000
     97       2.4873      2.00000
     98       3.7665      2.00000
     99       4.0519      2.00000
    100       4.0697      2.00000
    101       4.0726      2.00000
    102       4.1044      2.00000
    103       4.1169      2.00000
    104       4.1471      2.00000
    105       4.1478      2.00000
    106       4.1919      2.00000
    107       4.2312      2.00000
    108       4.2693      2.00000
    109       4.3169      2.00000
    110       4.4488      2.00000
    111       4.4987      2.00000
    112       4.5845      2.00000
    113       4.6361      2.00000
    114       4.7168      2.00000
    115       4.7297      2.00000
    116       4.7451      2.00000
    117       4.7824      2.00000
    118       4.8207      2.00000
    119       4.8539      2.00000
    120       4.8847      2.00000
    121       4.9112      2.00000
    122       4.9324      2.00000
    123       4.9699      2.00000
    124       4.9881      2.00000
    125       5.0076      2.00000
    126       5.0318      2.00000
    127       5.0341      2.00000
    128       5.0759      2.00000
    129       5.1441      2.00000
    130       5.1716      2.00000
    131       5.1984      2.00000
    132       5.2267      2.00000
    133       5.2538      2.00000
    134       5.3093      2.00000
    135       5.3336      2.00000
    136       5.4151      2.00000
    137       5.4743      2.00000
    138       5.4866      2.00000
    139       5.5767      2.00000
    140       5.5857      2.00000
    141       5.6086      2.00000
    142       5.6418      2.00000
    143       5.6803      2.00000
    144       5.6974      2.00000
    145       5.7531      2.00000
    146       5.7612      2.00000
    147       5.7838      2.00000
    148       5.7953      2.00000
    149       5.8086      2.00000
    150       5.8618      2.00000
    151       5.8664      2.00000
    152       5.9150      2.00000
    153       5.9155      2.00000
    154       5.9331      2.00000
    155       5.9693      2.00000
    156       5.9998      2.00000
    157       6.0019      2.00000
    158       6.0300      2.00000
    159       6.0813      2.00000
    160       6.1222      2.00000
    161       6.1575      2.00000
    162       6.1769      2.00000
    163       6.1979      2.00000
    164       6.2582      2.00000
    165       6.2652      2.00000
    166       6.3232      2.00000
    167       6.3310      2.00000
    168       6.3744      2.00000
    169       6.4002      2.00000
    170       6.4032      2.00000
    171       6.4485      2.00000
    172       6.4832      2.00000
    173       6.5010      2.00000
    174       6.5440      2.00000
    175       6.5936      2.00000
    176       6.6104      2.00000
    177       6.6286      2.00000
    178       6.6619      2.00000
    179       6.7111      2.00000
    180       6.7513      2.00000
    181       6.7917      2.00000
    182       6.7953      2.00000
    183       6.8351      2.00000
    184       6.8393      2.00000
    185       6.8587      2.00000
    186       6.9392      2.00000
    187       6.9485      2.00000
    188       7.0005      2.00000
    189       7.0359      2.00000
    190       7.0695      2.00000
    191       7.0899      2.00000
    192       7.1639      2.00000
    193       7.2039      2.00000
    194       7.2144      2.00000
    195       7.2954      2.00000
    196       7.3157      2.00000
    197       7.3174      2.00000
    198       7.3881      2.00000
    199       7.4194      2.00000
    200       7.4777      2.00000
    201       7.5455      2.00000
    202       7.5945      2.00000
    203       7.6292      2.00000
    204       7.6330      2.00000
    205       7.6960      2.00000
    206       7.7201      2.00000
    207       7.7799      2.00000
    208       7.7909      2.00000
    209       7.8554      2.00000
    210       7.8943      2.00000
    211       7.9044      2.00000
    212       7.9372      2.00000
    213       7.9693      2.00000
    214       7.9941      2.00000
    215       8.0018      2.00000
    216       8.0358      2.00000
    217       8.0550      2.00000
    218       8.1325      2.00000
    219       8.1594      2.00000
    220       8.1940      2.00000
    221       8.2073      2.00000
    222       8.2174      2.00000
    223       8.2552      2.00000
    224       8.2794      2.00000
    225       8.3429      2.00000
    226       8.3489      2.00000
    227       8.3657      2.00000
    228       8.4031      2.00000
    229       8.4175      2.00000
    230       8.4573      2.00000
    231       8.4802      2.00000
    232       8.4815      2.00000
    233       8.5058      2.00000
    234       8.5279      2.00000
    235       8.5676      2.00000
    236       8.5681      2.00000
    237       8.6041      2.00000
    238       8.6394      2.00000
    239       8.6732      2.00000
    240       8.6758      2.00000
    241       8.7707      2.00000
    242       8.7969      2.00000
    243       8.8774      2.00000
    244       8.8893      2.00000
    245       8.9369      2.00002
    246       9.0007      2.00078
    247       9.0078      2.00111
    248       9.0303      2.00310
    249       9.0562      2.00875
    250       9.1413      2.06827
    251       9.1540      2.07067
    252       9.1686      2.05933
    253       9.2095      1.87596
    254       9.2253      1.72237
    255       9.2805      0.88434
    256       9.2908      0.71514
    257       9.3581     -0.00082
    258       9.3628     -0.01949
    259       9.3903     -0.06978
    260       9.4198     -0.05869
    261       9.4803     -0.01285
    262       9.5120     -0.00384
    263       9.5202     -0.00270
    264       9.8843     -0.00000
    265       9.9452     -0.00000
    266      10.0511     -0.00000
    267      10.4423     -0.00000
    268      10.7435     -0.00000
    269      10.7887     -0.00000
    270      10.8656     -0.00000
    271      11.1844     -0.00000
    272      11.2721     -0.00000
    273      11.5062     -0.00000
    274      11.6872     -0.00000
    275      11.9985     -0.00000
    276      12.0425      0.00000
    277      12.3156      0.00000
    278      12.5115      0.00000
    279      13.0833      0.00000
    280      13.2003      0.00000
    281      13.3742      0.00000
    282      13.7362      0.00000
    283      15.7657      0.00000
    284      15.9474      0.00000
    285      16.0027      0.00000
    286      16.1171      0.00000
    287      16.1804      0.00000
    288      16.4731      0.00000
    289      16.5103      0.00000
    290      16.9463      0.00000
    291      17.0303      0.00000
    292      17.1072      0.00000
    293      17.2295      0.00000
    294      17.6326      0.00000
    295      18.2515      0.00000
    296      18.4596      0.00000
    297      18.6273      0.00000
    298      18.7081      0.00000
    299      18.7642      0.00000
    300      18.9233      0.00000
    301      19.0453      0.00000
    302      19.0824      0.00000
    303      19.4114      0.00000
    304      19.7306      0.00000
    305      19.7476      0.00000
    306      19.8404      0.00000
    307      19.9395      0.00000

 k-point   2 :       0.5000    0.1250    0.7500
  band No.  band energies     occupation 
      1     -40.8946      2.00000
      2     -40.8872      2.00000
      3     -40.8827      2.00000
      4     -40.8792      2.00000
      5     -40.8716      2.00000
      6     -40.8628      2.00000
      7     -40.8319      2.00000
      8     -40.8262      2.00000
      9     -40.8217      2.00000
     10     -40.8154      2.00000
     11     -40.8010      2.00000
     12     -40.7933      2.00000
     13     -40.7875      2.00000
     14     -40.7832      2.00000
     15     -40.7727      2.00000
     16     -40.7619      2.00000
     17     -40.7260      2.00000
     18     -40.7207      2.00000
     19     -40.7073      2.00000
     20     -40.7019      2.00000
     21     -40.6924      2.00000
     22     -40.6797      2.00000
     23     -40.6780      2.00000
     24     -40.6687      2.00000
     25     -40.6641      2.00000
     26     -40.6581      2.00000
     27     -40.6425      2.00000
     28     -40.6388      2.00000
     29     -40.6163      2.00000
     30     -40.6142      2.00000
     31     -40.6002      2.00000
     32     -40.5932      2.00000
     33     -40.5841      2.00000
     34     -40.5785      2.00000
     35     -40.5720      2.00000
     36     -40.5703      2.00000
     37     -40.5591      2.00000
     38     -40.5583      2.00000
     39     -40.5493      2.00000
     40     -40.5438      2.00000
     41     -40.5364      2.00000
     42     -40.5314      2.00000
     43     -40.5308      2.00000
     44     -40.5283      2.00000
     45     -40.5211      2.00000
     46     -40.5205      2.00000
     47     -40.5140      2.00000
     48     -40.5137      2.00000
     49     -40.5079      2.00000
     50     -40.5073      2.00000
     51     -40.5007      2.00000
     52     -40.4994      2.00000
     53     -40.4925      2.00000
     54     -40.4894      2.00000
     55     -40.4844      2.00000
     56     -40.4839      2.00000
     57     -40.4825      2.00000
     58     -40.4761      2.00000
     59     -40.4707      2.00000
     60     -40.4669      2.00000
     61     -40.4667      2.00000
     62     -40.4596      2.00000
     63     -40.4557      2.00000
     64     -40.4548      2.00000
     65     -40.4494      2.00000
     66     -40.4441      2.00000
     67     -40.4437      2.00000
     68     -40.4381      2.00000
     69     -40.4345      2.00000
     70     -40.4323      2.00000
     71     -40.4300      2.00000
     72     -40.4276      2.00000
     73     -40.4248      2.00000
     74     -40.4181      2.00000
     75     -40.4172      2.00000
     76     -40.4153      2.00000
     77     -40.4103      2.00000
     78     -40.4088      2.00000
     79     -40.4054      2.00000
     80     -40.4018      2.00000
     81     -40.3987      2.00000
     82     -40.3969      2.00000
     83     -40.3935      2.00000
     84     -40.3908      2.00000
     85     -40.3898      2.00000
     86     -40.3850      2.00000
     87     -40.3850      2.00000
     88     -40.3809      2.00000
     89     -40.3726      2.00000
     90     -40.3688      2.00000
     91     -40.3602      2.00000
     92     -40.3568      2.00000
     93     -40.3544      2.00000
     94     -40.3539      2.00000
     95     -40.3505      2.00000
     96     -40.3478      2.00000
     97       3.1400      2.00000
     98       3.1574      2.00000
     99       4.0966      2.00000
    100       4.1377      2.00000
    101       4.2123      2.00000
    102       4.2375      2.00000
    103       4.2786      2.00000
    104       4.3214      2.00000
    105       4.3501      2.00000
    106       4.3831      2.00000
    107       4.3904      2.00000
    108       4.3964      2.00000
    109       4.4063      2.00000
    110       4.4217      2.00000
    111       4.4484      2.00000
    112       4.4744      2.00000
    113       4.4919      2.00000
    114       4.5520      2.00000
    115       4.5635      2.00000
    116       4.5698      2.00000
    117       4.6136      2.00000
    118       4.6288      2.00000
    119       4.6690      2.00000
    120       4.7120      2.00000
    121       4.7584      2.00000
    122       4.8623      2.00000
    123       4.8674      2.00000
    124       4.8916      2.00000
    125       4.9164      2.00000
    126       4.9287      2.00000
    127       4.9684      2.00000
    128       5.0184      2.00000
    129       5.0648      2.00000
    130       5.0862      2.00000
    131       5.1487      2.00000
    132       5.2021      2.00000
    133       5.2491      2.00000
    134       5.2899      2.00000
    135       5.3031      2.00000
    136       5.3605      2.00000
    137       5.3786      2.00000
    138       5.4376      2.00000
    139       5.4594      2.00000
    140       5.5114      2.00000
    141       5.5587      2.00000
    142       5.5735      2.00000
    143       5.6156      2.00000
    144       5.6405      2.00000
    145       5.6606      2.00000
    146       5.6787      2.00000
    147       5.7242      2.00000
    148       5.7726      2.00000
    149       5.8066      2.00000
    150       5.8116      2.00000
    151       5.8521      2.00000
    152       5.8558      2.00000
    153       5.8978      2.00000
    154       5.9283      2.00000
    155       5.9383      2.00000
    156       5.9538      2.00000
    157       5.9871      2.00000
    158       6.0302      2.00000
    159       6.0805      2.00000
    160       6.2379      2.00000
    161       6.2736      2.00000
    162       6.2964      2.00000
    163       6.3738      2.00000
    164       6.4235      2.00000
    165       6.4429      2.00000
    166       6.4604      2.00000
    167       6.4908      2.00000
    168       6.5131      2.00000
    169       6.5461      2.00000
    170       6.5589      2.00000
    171       6.5726      2.00000
    172       6.6348      2.00000
    173       6.6389      2.00000
    174       6.6503      2.00000
    175       6.6869      2.00000
    176       6.7134      2.00000
    177       6.7241      2.00000
    178       6.7293      2.00000
    179       6.7770      2.00000
    180       6.8352      2.00000
    181       6.8504      2.00000
    182       6.8866      2.00000
    183       6.8978      2.00000
    184       6.9130      2.00000
    185       6.9473      2.00000
    186       7.0070      2.00000
    187       7.0383      2.00000
    188       7.0647      2.00000
    189       7.0889      2.00000
    190       7.0967      2.00000
    191       7.1794      2.00000
    192       7.2025      2.00000
    193       7.2177      2.00000
    194       7.2656      2.00000
    195       7.2942      2.00000
    196       7.3039      2.00000
    197       7.3415      2.00000
    198       7.3707      2.00000
    199       7.3923      2.00000
    200       7.3957      2.00000
    201       7.4418      2.00000
    202       7.4988      2.00000
    203       7.5335      2.00000
    204       7.5464      2.00000
    205       7.5775      2.00000
    206       7.6280      2.00000
    207       7.6426      2.00000
    208       7.6985      2.00000
    209       7.7239      2.00000
    210       7.7797      2.00000
    211       7.7822      2.00000
    212       7.8165      2.00000
    213       7.8813      2.00000
    214       7.8877      2.00000
    215       7.9322      2.00000
    216       7.9468      2.00000
    217       7.9614      2.00000
    218       8.0502      2.00000
[...]
         0         1         2         3         4         5         6         7         8         9
x   266.6861    0.0000    0.0048    0.0073    0.0003   -0.0060    0.0016   -0.0026   44.1186    0.0004
x     0.0028    0.0046   -0.0084    0.0346   -0.0120    0.0142   -8.3556    0.0001    0.0012    0.0073
x     0.0020   -0.0010    0.0034   -0.0100   -1.1907    0.0000    0.0012    0.0032    0.0003   -0.0001
x     0.0003   -0.0009   -0.0213    0.0000    0.0000    0.0001    0.0000    0.0000    0.0000   -0.0000
x    -0.0001    0.0000   -0.0000   -0.0000   -0.0000   -0.0000   -0.0000   -0.0000    0.0000    0.0000
y   266.6861    0.0000    0.0073    0.0046   -0.0002   -0.0063    0.0017    0.0006   44.1192   -0.0003
y     0.0022    0.0022    0.0086    0.0346   -0.0138    0.0094   -8.3647   -0.0000    0.0082    0.0035
y    -0.0023   -0.0010    0.0104   -0.0044   -1.1899   -0.0000    0.0034    0.0016   -0.0004   -0.0001
y     0.0010   -0.0004   -0.0212   -0.0000    0.0001    0.0001   -0.0000    0.0000    0.0000   -0.0000
y    -0.0001   -0.0000   -0.0000   -0.0000   -0.0000    0.0000   -0.0000    0.0000    0.0000    0.0000
z   266.6861    0.0000   -0.0014    0.0001    0.8366   -3.2759   -0.0005   -0.0000   37.6595   -1.3796
z    -0.0000    0.0000   -0.0731    0.0773   -0.0000   -0.0000   -3.9666    0.9968    0.0001    0.0000
z    -0.3683    0.2746   -0.0000   -0.0000   -0.0742    0.3148    0.0000    0.0000   -0.0221    0.0102
z    -0.0000   -0.0000    0.0042    0.0079    0.0000    0.0000   -0.0001    0.0000   -0.0000    0.0000
z     0.0000    0.0000    0.0000    0.0000    0.0000   -0.0000   -0.0000    0.0000    0.0000    0.0000
 total charge-density along one line
x   511.9999    0.0000    0.0082    0.0151    0.0094   -0.0003   -0.0062    0.0121  198.1261    0.0001
x    -0.0090   -0.0117   -0.0026    0.0392   -0.0289    0.0409   22.0311   -0.0001   -0.0097   -0.0044
x     0.0060   -0.0032    0.0008   -0.0125   -1.7707    0.0000    0.0016    0.0090    0.0020   -0.0011
x     0.0019   -0.0060    0.2823    0.0000    0.0005    0.0013   -0.0000    0.0001   -0.0002    0.0005
x    -0.0860   -0.0000   -0.0001   -0.0002   -0.0000   -0.0000    0.0000   -0.0001    0.0341    0.0000
x     0.0000    0.0001   -0.0000    0.0000   -0.0000    0.0001   -0.0154   -0.0000   -0.0000   -0.0000
x     0.0000   -0.0000    0.0000   -0.0000    0.0075   -0.0000    0.0000    0.0000    0.0000    0.0000
x    -0.0000    0.0000   -0.0038    0.0000    0.0000   -0.0000    0.0000   -0.0000    0.0000   -0.0000
x     0.0020   -0.0000    0.0000    0.0000    0.0000    0.0000   -0.0000    0.0000   -0.0012   -0.0000
x    -0.0000   -0.0000   -0.0000   -0.0000   -0.0000   -0.0000    0.0010    0.0000
y   511.9999    0.0000    0.0152    0.0076   -0.0100   -0.0006   -0.0137    0.0088  198.1045    0.0000
y    -0.0148   -0.0099    0.0027    0.0393   -0.0416    0.0255   21.9887    0.0002   -0.0034   -0.0055
y    -0.0066   -0.0031    0.0130   -0.0039   -1.7814    0.0000    0.0097    0.0038   -0.0022   -0.0011
y     0.0063   -0.0028    0.2821   -0.0000    0.0014    0.0007    0.0000    0.0001   -0.0005    0.0002
y    -0.0860    0.0000   -0.0002   -0.0001    0.0000   -0.0000    0.0001   -0.0001    0.0341   -0.0000
y     0.0001    0.0000    0.0000    0.0000   -0.0001    0.0000   -0.0154    0.0000   -0.0000   -0.0000
y    -0.0000   -0.0000    0.0000   -0.0000    0.0075    0.0000    0.0000    0.0000   -0.0000    0.0000
y    -0.0000    0.0000   -0.0038   -0.0000   -0.0000    0.0000   -0.0000   -0.0000    0.0000   -0.0000
y     0.0020    0.0000    0.0000    0.0000   -0.0000    0.0000   -0.0000    0.0000   -0.0012    0.0000
y    -0.0000   -0.0000    0.0000   -0.0000    0.0000    0.0000    0.0010    0.0000
z   511.9999    0.0000   -0.0001   -0.0000    1.8862   -7.5034   -0.0001    0.0001  170.4678   -5.9570
z    -0.0001   -0.0000    3.1384   -4.1915   -0.0000    0.0000   11.5768   -2.5068   -0.0000    0.0000
z     0.1430   -0.1295   -0.0000   -0.0000   -0.0875    0.4416    0.0000    0.0000   -0.0298    0.0117
z    -0.0000   -0.0000   -0.0947   -0.1491    0.0000    0.0000    0.0097   -0.0027    0.0000    0.0000
z     0.0378    0.0527    0.0000    0.0000   -0.0013   -0.0002    0.0000   -0.0000   -0.0119   -0.0197
z    -0.0000   -0.0000    0.0000    0.0001   -0.0000   -0.0000    0.0020    0.0056    0.0000    0.0000
z    -0.0000    0.0001    0.0000    0.0000    0.0006   -0.0002   -0.0000   -0.0000    0.0001   -0.0001
z    -0.0000   -0.0000   -0.0007   -0.0012    0.0000   -0.0000   -0.0001    0.0001   -0.0000    0.0000
z     0.0003    0.0010   -0.0000    0.0000   -0.0000   -0.0000    0.0000   -0.0000   -0.0001   -0.0005
z     0.0000    0.0000    0.0000   -0.0001   -0.0000    0.0000    0.0000    0.0000
 
 pseudopotential strength for first ion, spin component:           1
-37.256   0.014  -0.003   8.261  -0.007   0.002  -0.003  -0.007
  0.014 -37.269  -0.049  -0.007   8.267   0.026  -0.000   0.000
 -0.003  -0.049 -37.280   0.002   0.026   8.273  -0.000  -0.000
  8.261  -0.007   0.002   7.870   0.002  -0.000   0.002   0.004
 -0.007   8.267   0.026   0.002   7.868  -0.006   0.000  -0.000
  0.002   0.026   8.273  -0.000  -0.006   7.867  -0.000   0.000
 -0.003  -0.000  -0.000   0.002   0.000  -0.000  -2.312  -0.022
 -0.007   0.000  -0.000   0.004  -0.000   0.000  -0.022  -2.312
 -0.000  -0.005   0.002   0.000   0.003  -0.001   0.002   0.004
 -0.000  -0.006  -0.010   0.000   0.002   0.004   0.007  -0.002
 -0.001  -0.001  -0.007   0.000   0.000   0.002   0.001  -0.010
 -0.004  -0.001  -0.000   0.002   0.000  -0.000  -1.963  -0.025
 -0.008   0.000  -0.001   0.004  -0.000   0.000  -0.025  -1.964
 -0.000  -0.006   0.003   0.000   0.004  -0.001   0.002   0.004
 -0.001  -0.006  -0.011   0.000   0.002   0.005   0.008  -0.002
 -0.001  -0.002  -0.007   0.000   0.000   0.003   0.001  -0.011
 -0.000   0.005   0.003   0.000  -0.000   0.001   0.001  -0.004
 -0.000   0.012   0.007   0.000  -0.001   0.002   0.002  -0.008
 total augmentation occupancy for first ion, spin component:           1
  1.997   0.000  -0.000  -0.013   0.000  -0.000   0.000   0.001  -0.000   0.000   0.000  -0.000  -0.001   0.000  -0.000  -0.000
  0.000   1.997  -0.000   0.000  -0.013  -0.000   0.000  -0.000   0.000   0.002   0.001  -0.000   0.000  -0.000  -0.001  -0.001
 -0.000  -0.000   1.997  -0.000  -0.000  -0.013   0.000   0.000  -0.000   0.002   0.002  -0.000  -0.000   0.000  -0.003  -0.002
 -0.013   0.000  -0.000   0.104  -0.003   0.000   0.003   0.021  -0.001   0.005   0.000  -0.005  -0.009   0.001  -0.003   0.001
  0.000  -0.013  -0.000  -0.003   0.105   0.014   0.004  -0.001   0.016   0.011   0.012  -0.003   0.001  -0.012  -0.009  -0.010
 -0.000  -0.000  -0.013   0.000   0.014   0.109   0.002   0.005  -0.007   0.044   0.019  -0.001  -0.004   0.006  -0.027  -0.011
  0.000   0.000   0.000   0.003   0.004   0.002   2.724   0.038  -0.012   0.005  -0.000  -0.716  -0.034   0.009  -0.003   0.001
  0.001  -0.000   0.000   0.021  -0.001   0.005   0.038   2.722  -0.012  -0.002   0.030  -0.035  -0.714   0.009   0.001  -0.025
 -0.000   0.000  -0.000  -0.001   0.016  -0.007  -0.012  -0.012   2.501   0.040  -0.025   0.008   0.008  -0.532  -0.031   0.023
  0.000   0.002   0.002   0.005   0.011   0.044   0.005  -0.002   0.040   2.778   0.172  -0.003   0.001  -0.033  -0.758  -0.142
  0.000   0.001   0.002   0.000   0.012   0.019  -0.000   0.030  -0.025   0.172   2.547   0.001  -0.024   0.022  -0.140  -0.568
 -0.000  -0.000  -0.000  -0.005  -0.003  -0.001  -0.716  -0.035   0.008  -0.003   0.001   0.486   0.038  -0.005   0.004   0.002
 -0.001   0.000  -0.000  -0.009   0.001  -0.004  -0.034  -0.714   0.008   0.001  -0.024   0.038   0.458  -0.006  -0.003   0.006
  0.000  -0.000   0.000   0.001  -0.012   0.006   0.009   0.009  -0.532  -0.033   0.022  -0.005  -0.006   0.435   0.022  -0.015
 -0.000  -0.001  -0.003  -0.003  -0.009  -0.027  -0.003   0.001  -0.031  -0.758  -0.140   0.004  -0.003   0.022   0.481   0.055
 -0.000  -0.001  -0.002   0.001  -0.010  -0.011   0.001  -0.025   0.023  -0.142  -0.568   0.002   0.006  -0.015   0.055   0.431
 -0.000  -0.003  -0.003  -0.000   0.033   0.010   0.005  -0.015  -0.009   0.114   0.024  -0.007   0.025   0.007  -0.136  -0.024
  0.000   0.001   0.002  -0.000  -0.002  -0.000   0.001  -0.005   0.001   0.012   0.003   0.001  -0.000  -0.001   0.006   0.001


------------------------ aborting loop because EDIFF is reached ----------------------------------------


    CHARGE:  cpu time   42.38: real time   42.39
    FORLOC:  cpu time    0.13: real time    0.13
    FORNL :  cpu time  206.47: real time  206.52
    STRESS:  cpu time  623.35: real time  623.48
    FORCOR:  cpu time    1.00: real time    1.00
    FORHAR:  cpu time    0.32: real time    0.32
    MIXING:  cpu time    0.03: real time    0.03

  FORCE on cell =-STRESS in cart. coord.  units (eV):
  Direction    XX          YY          ZZ          XY          YZ          ZX
  --------------------------------------------------------------------------------------
  Alpha Z  4309.77481  4309.77481  4309.77481
  Ewald  -22535.79133-22535.79133-23455.59642   200.97696    16.87890   -16.87890
  Hartree  6082.23528  6083.30546  5472.69233   123.23438    13.46253   -12.41689
  E(xc)   -2904.82964 -2904.83734 -2905.40829     0.11146     0.01787    -0.00945
  Local    4986.88657  4983.52565  6508.77753  -316.69858   -32.09856    29.51402
  n-local  -886.15031  -887.01086  -890.17741     1.31984     0.32832     0.04770
  augment  3878.05755  3879.83659  3882.14785    -3.70794     0.65352    -0.05175
  Kinetic  7091.92815  7093.95252  7097.95000    -3.69079     0.79502     0.08298
  Fock        0.00000     0.00000     0.00000     0.00000     0.00000     0.00000
  -------------------------------------------------------------------------------------
  Total      22.11109    22.75552    20.16041     1.54533     0.03760     0.28771
  in kB      73.12198    75.25313    66.67104     5.11045     0.12436     0.95146
  external pressure =       71.68 kB  Pullay stress =        0.00 kB


 VOLUME and BASIS-vectors are now :
 -----------------------------------------------------------------------------
  energy-cutoff  :      300.00
  volume of cell :      484.48
      direct lattice vectors                 reciprocal lattice vectors
     7.854000000 -0.000000000 -0.000000000     0.127323657  0.000000000 -0.000000000
    -0.000000000  7.854000000  0.000000000     0.000000000  0.127323657 -0.000000000
     0.000000000  0.000000000  7.854000000     0.000000000 -0.000000000  0.127323657

  length of vectors
     7.854000000  7.854000000  7.854000000     0.127323657  0.127323657  0.127323657


 FORCES acting on ions
    electron-ion (+dipol)            ewald-force                    non-local-force                 convergence-correction
 -----------------------------------------------------------------------------------------------
   0.210E+02 0.350E+01 0.675E+02   -.217E+02 -.353E+01 -.675E+02   0.867E-01 0.271E-01 -.898E+00   -.431E-02 0.502E-02 0.251E-01
   -.179E+01 0.264E+02 0.624E+02   0.165E+01 -.270E+02 -.624E+02   0.128E+00 -.349E-01 -.966E+00   0.787E-03 0.196E-02 0.689E-01
   0.284E+02 -.812E+01 -.171E+03   -.289E+02 0.826E+01 0.172E+03   0.570E-01 0.120E+00 0.184E+01   0.614E-03 -.894E-02 -.947E-02
   0.138E+02 -.137E+02 0.651E+02   -.141E+02 0.141E+02 -.656E+02   0.665E-01 -.724E-01 -.352E+00   -.115E-01 0.703E-02 -.709E-01
   -.122E+02 0.308E+02 -.171E+03   0.124E+02 -.314E+02 0.171E+03   0.140E+00 0.434E-01 0.185E+01   -.132E-01 0.445E-02 0.713E-01
   0.332E+02 -.330E+02 0.151E+03   -.338E+02 0.334E+02 -.151E+03   0.138E-01 0.744E-01 -.136E+01   0.529E-02 -.318E-02 -.136E-01
   -.312E+02 0.312E+02 0.127E+03   0.317E+02 -.317E+02 -.127E+03   0.446E-01 -.282E-01 -.141E+01   0.113E-01 -.229E-01 -.742E-01
   0.815E+01 -.284E+02 -.171E+03   -.826E+01 0.289E+02 0.172E+03   -.129E+00 -.718E-01 0.184E+01   -.881E-02 0.518E-02 0.102E-01
   -.145E+01 0.126E+02 0.499E+02   0.171E+01 -.130E+02 -.504E+02   -.168E+00 0.101E+00 -.187E-01   0.964E-03 0.152E-01 -.460E-02
   -.180E+02 0.180E+02 -.245E+03   0.183E+02 -.183E+02 0.246E+03   0.764E-02 -.139E-01 0.210E+01   0.467E-03 0.467E-02 -.750E-01
   0.330E+02 -.332E+02 0.151E+03   -.334E+02 0.338E+02 -.151E+03   -.670E-01 -.246E-02 -.137E+01   0.153E-02 -.791E-02 0.157E-01
   -.265E+02 0.179E+01 0.623E+02   0.270E+02 -.165E+01 -.624E+02   0.474E-01 -.127E+00 -.959E+00   0.181E-02 -.501E-02 0.680E-01
   0.616E+00 -.642E+00 0.765E+02   -.485E+00 0.485E+00 -.760E+02   -.295E-01 0.351E-01 -.142E+01   0.338E-02 0.875E-02 -.702E-01
   -.126E+02 0.145E+01 0.499E+02   0.130E+02 -.171E+01 -.504E+02   -.102E+00 0.163E+00 -.227E-01   0.165E-02 0.272E-02 0.863E-02
   -.308E+02 0.122E+02 -.171E+03   0.314E+02 -.124E+02 0.171E+03   -.633E-01 -.155E+00 0.185E+01   0.785E-02 0.407E-03 0.725E-01
   -.352E+01 -.210E+02 0.675E+02   0.353E+01 0.217E+02 -.675E+02   -.192E-01 -.773E-01 -.896E+00   0.371E-02 -.545E-02 -.233E-01
   0.332E+02 -.330E+02 0.151E+03   -.338E+02 0.334E+02 -.151E+03   0.137E-01 0.745E-01 -.136E+01   -.396E-02 0.213E-02 0.159E-01
   -.312E+02 0.312E+02 0.127E+03   0.317E+02 -.317E+02 -.127E+03   0.445E-01 -.280E-01 -.141E+01   -.939E-02 -.319E-02 0.672E-01
   0.814E+01 -.283E+02 -.171E+03   -.826E+01 0.289E+02 0.172E+03   -.129E+00 -.721E-01 0.184E+01   -.355E-02 -.542E-02 -.910E-02
   -.122E+02 0.308E+02 -.171E+03   0.124E+02 -.314E+02 0.171E+03   0.139E+00 0.435E-01 0.185E+01   0.727E-03 0.221E-01 -.719E-01
   -.180E+02 0.180E+02 -.245E+03   0.183E+02 -.183E+02 0.246E+03   0.781E-02 -.141E-01 0.210E+01   -.220E-02 0.630E-02 0.732E-01
   0.329E+02 -.332E+02 0.151E+03   -.334E+02 0.338E+02 -.151E+03   -.669E-01 -.252E-02 -.136E+01   0.818E-02 -.175E-01 -.122E-01
   -.265E+02 0.179E+01 0.625E+02   0.270E+02 -.165E+01 -.624E+02   0.474E-01 -.127E+00 -.958E+00   0.125E-01 -.605E-02 -.740E-01
   -.145E+01 0.126E+02 0.499E+02   0.171E+01 -.130E+02 -.504E+02   -.168E+00 0.101E+00 -.187E-01   0.916E-03 0.103E-01 0.879E-02
   -.126E+02 0.145E+01 0.499E+02   0.130E+02 -.171E+01 -.504E+02   -.102E+00 0.163E+00 -.226E-01   -.279E-02 0.382E-02 -.473E-02
   -.308E+02 0.122E+02 -.171E+03   0.314E+02 -.124E+02 0.171E+03   -.633E-01 -.154E+00 0.185E+01   -.105E-01 -.127E-01 -.727E-01
   -.352E+01 -.211E+02 0.675E+02   0.353E+01 0.217E+02 -.675E+02   -.193E-01 -.772E-01 -.896E+00   0.697E-02 0.524E-03 0.246E-01
   0.608E+00 -.634E+00 0.764E+02   -.485E+00 0.485E+00 -.760E+02   -.296E-01 0.352E-01 -.142E+01   0.116E-01 0.126E-02 0.661E-01
   -.179E+01 0.264E+02 0.625E+02   0.165E+01 -.270E+02 -.624E+02   0.128E+00 -.349E-01 -.965E+00   0.121E-02 -.822E-02 -.739E-01
   0.284E+02 -.812E+01 -.171E+03   -.289E+02 0.826E+01 0.172E+03   0.567E-01 0.120E+00 0.184E+01   -.908E-02 -.298E-02 0.960E-02
   0.137E+02 -.137E+02 0.650E+02   -.141E+02 0.141E+02 -.656E+02   0.664E-01 -.724E-01 -.353E+00   -.164E-02 -.226E-02 0.683E-01
   0.210E+02 0.350E+01 0.675E+02   -.217E+02 -.353E+01 -.675E+02   0.868E-01 0.271E-01 -.897E+00   0.402E-03 0.868E-02 -.243E-01
 -----------------------------------------------------------------------------------------------
   -.270E-01 0.371E-01 0.392E+00   0.494E-12 -.333E-13 -.142E-12   0.265E-01 -.362E-01 -.379E+00   0.982E-03 -.138E-02 -.102E-01
 
 
 POSITION                                       TOTAL-FORCE (eV/Angst)
 -----------------------------------------------------------------------------------
      0.00000      0.00000      0.14420        -0.555156      0.000676     -0.893630
      0.00000      1.96350      2.09081        -0.011081     -0.585103     -0.897457
     -0.00000      3.92700      3.69251        -0.476169      0.255029      2.166715
      0.00000      5.89050      5.92949        -0.308308      0.309693     -0.858145
      1.96350     -0.00000      1.73392         0.312862     -0.517980      2.164929
      1.96350      1.96350      4.07120        -0.596940      0.524450     -1.733160
      1.96350      3.92700      6.01781         0.501074     -0.503117     -1.444264
      1.96350      5.89050      7.61951        -0.247912      0.479671      2.166274
      3.92700      0.00000      3.94562         0.091880     -0.257962     -0.513733
      3.92700      1.96350      5.66092         0.350263     -0.344303      2.738096
      3.92700      3.92700      0.14420        -0.527950      0.598535     -1.731619
      3.92700      5.89050      2.09081         0.584475      0.003509     -0.903832
      5.89050      0.00000      6.10687         0.105267     -0.112893     -1.004866
      5.89050      1.96350      0.01862         0.259511     -0.096257     -0.520440
      5.89050      3.92700      1.73392         0.520022     -0.308412      2.158135
      5.89050      5.89050      4.07120        -0.001571      0.554342     -0.893260
      1.96350      1.96350      0.14420        -0.597240      0.524924     -1.733643
      1.96350      3.92700      2.09081         0.500615     -0.502636     -1.443357
      1.96350      5.89050      3.69251        -0.247760      0.479060      2.165675
      1.96350      0.00000      5.66092         0.312781     -0.517660      2.164087
      3.92700      1.96350      1.73392         0.350380     -0.344471      2.739247
      3.92700      3.92700      4.07120        -0.527498      0.598212     -1.731104
      3.92700      5.89050      6.01781         0.584648      0.003352     -0.904141
      3.92700     -0.00000      0.01862         0.091951     -0.257978     -0.513903
      5.89050      1.96350      3.94562         0.259456     -0.096222     -0.520260
      5.89050      3.92700      5.66092         0.519730     -0.308277      2.157243
      5.89050      5.89050      0.14420        -0.001631      0.554521     -0.893404
      5.89050     -0.00000      2.17987         0.105226     -0.112840     -1.004272
      0.00000      1.96350      6.01781        -0.010902     -0.585315     -0.897816
      0.00000      3.92700      7.61951        -0.476767      0.255194      2.167360
     -0.00000      5.89050      2.00249        -0.308269      0.309635     -0.858135
      0.00000      0.00000      4.07120        -0.554988      0.000623     -0.893319
 -----------------------------------------------------------------------------------
    total drift:                                0.000408     -0.000508      0.002096


--------------------------------------------------------------------------------------------------------



  FREE ENERGIE OF THE ION-ELECTRON SYSTEM (eV)
  ---------------------------------------------------
  free  energy   TOTEN  =      -162.74008669 eV

  energy  without entropy=     -162.71866529  energy(sigma->0) =     -162.73294622
 


--------------------------------------------------------------------------------------------------------


    POTLOK:  cpu time    1.03: real time    1.04


--------------------------------------------------------------------------------------------------------


     LOOP+:  cpu time15056.32: real time15058.68
    4ORBIT:  cpu time    0.00: real time    0.00

 total amount of memory used by VASP on root node   850028. kBytes
========================================================================

   base      :      30000. kBytes
   nonlr-proj:      27670. kBytes
   grid      :      47517. kBytes
   one-center:        497. kBytes
   wavefun   :     744344. kBytes
 
  
  
 General timing and accounting informations for this job:
 ========================================================
  
                  Total CPU time used (sec):    15157.316
                            User time (sec):    15155.221
                          System time (sec):        2.096
                         Elapsed time (sec):    15160.117
  
                   Maximum memory used (kb):     2313272.
                   Average memory used (kb):           0.
  
                          Minor page faults:       932913
                          Major page faults:           11
                 Voluntary context switches:          370
