 vasp.5.3.3 18Dez12 (build Jun 21 2016 14:15:03) complex                        
  
 executed on             LinuxIFC date 2017.10.19  13:24:50
 serial version


--------------------------------------------------------------------------------------------------------


 INCAR:
 POTCAR:    PAW_PBE Pd_pv 28Jan2005               
 POTCAR:    PAW_PBE Pd_pv 28Jan2005               
   VRHFIN =Pd: 4p5s4d                                                           
   LEXCH  = PE                                                                  
   EATOM  =  2621.5550 eV,  192.6789 Ry                                         
                                                                                
   TITEL  = PAW_PBE Pd_pv 28Jan2005                                             
   LULTRA =        F    use ultrasoft PP ?                                      
   IUNSCR =        1    unscreen: 0-lin 1-nonlin 2-no                           
   RPACOR =    2.250    partial core radius                                     
   POMASS =  106.420; ZVAL   =   16.000    mass and valenz                      
   RCORE  =    2.400    outmost cutoff radius                                   
   RWIGS  =    2.300; RWIGS  =    1.217    wigner-seitz radius (au A)           
   ENMAX  =  250.925; ENMIN  =  188.194 eV                                      
   ICORE  =        3    local potential                                         
   LCOR   =        T    correct aug charges                                     
   LPAW   =        T    paw PP                                                  
   EAUG   =  473.067                                                            
   DEXC   =    0.000                                                            
   RMAX   =    2.449    core radius for proj-oper                               
   RAUG   =    1.300    factor for augmentation sphere                          
   RDEP   =    2.405    radius for radial grids                                 
   RDEPT  =    1.966    core radius for aug-charge                              
                                                                                
   Atomic configuration                                                         
   11 entries                                                                   
     n  l   j            E        occ.                                          
     1  0  0.50    -24164.6632   2.0000                                         
     2  0  0.50     -3530.9218   2.0000                                         
     2  1  1.50     -3165.6822   6.0000                                         
     3  0  0.50      -639.4578   2.0000                                         
     3  1  1.50      -519.4532   6.0000                                         
     3  2  2.50      -328.9758  10.0000                                         
     4  0  0.50       -88.7014   2.0000                                         
     4  1  1.50       -54.4541   6.0000                                         
     4  2  2.50        -6.6878   9.0000                                         
     5  0  0.50        -4.3543   1.0000                                         
     4  3  2.50        -1.3606   0.0000                                         
   Description                                                                  
     l       E           TYP  RCUT    TYP  RCUT                                 
     1    -54.4540524     23  2.100                                             
     1      4.0817478     23  2.100                                             
     2     -6.6878326     23  2.400                                             
     2     -4.0817478     23  2.400                                             
     0     -4.3542962     23  2.400                                             
     0     13.6058260     23  2.400                                             
     3     -5.4423304     23  2.400                                             
  local pseudopotential read in
  partial core-charges read in
  partial kinetic energy density read in
  atomic valenz-charges read in
  non local Contribution for L=           1  read in
    real space projection operators read in
  non local Contribution for L=           1  read in
    real space projection operators read in
  non local Contribution for L=           2  read in
    real space projection operators read in
  non local Contribution for L=           2  read in
    real space projection operators read in
  non local Contribution for L=           0  read in
    real space projection operators read in
  non local Contribution for L=           0  read in
    real space projection operators read in
    PAW grid and wavefunctions read in
 
   number of l-projection  operators is LMAX  =           6
   number of lm-projection operators is LMMAX =          18
 
 Optimization of the real space projectors (new method)

 maximal supplied QI-value         = 15.68
 optimisation between [QCUT,QGAM] = [  8.78, 17.72] = [ 21.60, 87.97] Ry 
 Optimized for a Real-space Cutoff    1.74 Angstroem

   l    n(q)    QCUT    max X(q) W(low)/X(q) W(high)/X(q)  e(spline) 
   1      9     8.783     3.357    0.98E-04    0.76E-04    0.17E-06
   1      9     8.783     4.938    0.21E-03    0.13E-03    0.38E-06
   2      8     8.783    23.508    0.21E-03    0.23E-03    0.36E-06
   2      8     8.783    23.349    0.20E-03    0.22E-03    0.34E-06
   0      9     8.783    49.920    0.63E-04    0.36E-04    0.14E-06
   0      9     8.783    23.997    0.53E-04    0.34E-04    0.12E-06
  PAW_PBE Pd_pv 28Jan2005               :
 energy of atom  1       EATOM=-2621.5550
 kinetic energy error for atom=    0.0975 (will be added to EATOM!!)
 
 
 POSCAR: Pd                                      
  positions in cartesian coordinates
  No initial velocities read in
 exchange correlation table for  LEXCH =        8
   RHO(1)=    0.500       N(1)  =     2000
   RHO(2)=  100.500       N(2)  =     4000
 


--------------------------------------------------------------------------------------------------------


 ion  position               nearest neighbor table
   1  0.986  0.014  0.014-  14 2.60  28 2.60   2 2.69   5 2.78  17 2.78  27 2.78  13 2.78  29 2.80
                            31 2.80   8 2.86  20 2.86
   2  0.994  0.256  0.256-   3 2.58   1 2.69   5 2.69  17 2.69   6 2.78  18 2.78  30 2.78  32 2.78
                            14 2.78  28 2.78  25 2.86  15 2.86
   3  0.012  0.488  0.488-   2 2.58   6 2.58  18 2.58   7 2.78  19 2.78  29 2.78  31 2.78  15 2.80
                            25 2.80   4 2.81
   4  0.009  0.741  0.741-   8 2.78  16 2.78  20 2.78  26 2.78  30 2.78  32 2.78   7 2.81  19 2.81
                             3 2.81
   5  0.236  0.014  0.264-   2 2.69   6 2.69  32 2.69   9 2.78  17 2.78  21 2.78   1 2.78  19 2.80
                            31 2.80  12 2.86   8 2.86
   6  0.244  0.256  0.506-   3 2.58   7 2.58  29 2.58   9 2.69  21 2.69   5 2.69  18 2.78  20 2.78
                             2 2.78  22 2.78  10 2.78  32 2.78
   7  0.262  0.488  0.738-   6 2.58  10 2.58  22 2.58  19 2.78   3 2.78  23 2.78  29 2.78  11 2.80
                            17 2.80   4 2.81
   8  0.244  0.756  0.006-  31 2.58  11 2.69  18 2.78  20 2.78  30 2.78  12 2.78  24 2.78   4 2.78
                             5 2.86   1 2.86
   9  0.486  0.014  0.514-   6 2.69  10 2.69  20 2.69  13 2.78   5 2.78  21 2.78  25 2.78  23 2.80
                            19 2.80  16 2.86  12 2.86
  10  0.494  0.256  0.756-   7 2.58   9 2.69  13 2.69  25 2.69  20 2.78  22 2.78   6 2.78  26 2.78
                            14 2.78  24 2.78  17 2.86  11 2.86
  11  0.486  0.514  0.014-   8 2.69  12 2.69  18 2.69  17 2.78  15 2.78  21 2.78  27 2.78  23 2.80
                             7 2.80  26 2.86  10 2.86
  12  0.494  0.756  0.256-  19 2.58  15 2.69  11 2.69  27 2.69  18 2.78   8 2.78  22 2.78  16 2.78
                            24 2.78  28 2.78   9 2.86   5 2.86
  13  0.736  0.014  0.764-  14 2.60  24 2.60  10 2.69   9 2.78   1 2.78  25 2.78  27 2.78  23 2.80
                            29 2.80  16 2.86  32 2.86
  14  0.753  0.247  0.997-   1 2.60  13 2.60  24 2.78  28 2.78  10 2.78  26 2.78   2 2.78  30 2.78
                            29 2.88
  15  0.736  0.514  0.264-  12 2.69  16 2.69  22 2.69  21 2.78  11 2.78  25 2.78  27 2.78   3 2.80
                            31 2.80  30 2.86   2 2.86
  16  0.744  0.756  0.506-  23 2.58  15 2.69  22 2.78  12 2.78  26 2.78  32 2.78  28 2.78   4 2.78
                             9 2.86  13 2.86
  17  0.236  0.264  0.014-   2 2.69  18 2.69  30 2.69  11 2.78   1 2.78  21 2.78   5 2.78  29 2.80
                             7 2.80  20 2.86  10 2.86
  18  0.244  0.506  0.256-   3 2.58  19 2.58  31 2.58  11 2.69  21 2.69  17 2.69   6 2.78   8 2.78
                             2 2.78  22 2.78  30 2.78  12 2.78
  19  0.262  0.738  0.488-  12 2.58  18 2.58  22 2.58   7 2.78   3 2.78  23 2.78  31 2.78   5 2.80
                             9 2.80   4 2.81
  20  0.244  0.006  0.756-  29 2.58   9 2.69   6 2.78  10 2.78   8 2.78  32 2.78  24 2.78   4 2.78
                            17 2.86   1 2.86
  21  0.486  0.264  0.264-   6 2.69  18 2.69  22 2.69  11 2.78  15 2.78  17 2.78   5 2.78   9 2.78
                            25 2.78
  22  0.494  0.506  0.506-   7 2.58  19 2.58  23 2.58  21 2.69  15 2.69  25 2.69  18 2.78  10 2.78
                            12 2.78   6 2.78  16 2.78  26 2.78
  23  0.512  0.738  0.738-  16 2.58  22 2.58  26 2.58   7 2.78  19 2.78   9 2.80  11 2.80  27 2.80
                            13 2.80  24 2.88
  24  0.503  0.997  0.997-  13 2.60  27 2.60  14 2.78  28 2.78  10 2.78  20 2.78  12 2.78   8 2.78
                            23 2.88
  25  0.736  0.264  0.514-  10 2.69  22 2.69  26 2.69  15 2.78  21 2.78   9 2.78  13 2.78  29 2.80
                             3 2.80   2 2.86  32 2.86
  26  0.744  0.506  0.756-  23 2.58  25 2.69  22 2.78  10 2.78  16 2.78  30 2.78  14 2.78   4 2.78
                            27 2.86  11 2.86
  27  0.736  0.764  0.014-  24 2.60  28 2.60  12 2.69  13 2.78  15 2.78  11 2.78   1 2.78  23 2.80
                            31 2.80  30 2.86  26 2.86
  28  0.753  0.997  0.247-   1 2.60  27 2.60  24 2.78  14 2.78  16 2.78  12 2.78   2 2.78  32 2.78
                            31 2.88
  29  0.012  0.238  0.738-   6 2.58  20 2.58  32 2.58   3 2.78   7 2.78   1 2.80  25 2.80  17 2.80
                            13 2.80  14 2.88
  30  0.994  0.506  0.006-  31 2.58  17 2.69   2 2.78  18 2.78  26 2.78   8 2.78  14 2.78   4 2.78
                            27 2.86  15 2.86
  31  0.012  0.738  0.238-   8 2.58  18 2.58  30 2.58  19 2.78   3 2.78  27 2.80   1 2.80   5 2.80
                            15 2.80  28 2.88
  32  0.994  0.006  0.506-  29 2.58   5 2.69   6 2.78  16 2.78  20 2.78   2 2.78  28 2.78   4 2.78
                            13 2.86  25 2.86
 

IMPORTANT INFORMATION: All symmetrisations will be switched off!
NOSYMM: (Re-)initialisation of all symmetry stuff for point group C_1.

 
 
 KPOINTS: Server version 2017.10.18. K-point grid 
  k-points in reciprocal lattice
Space group operators:
 irot       det(A)        alpha          n_x          n_y          n_z        tau_x        tau_y        tau_z
    1     1.000000     0.000000     1.000000     0.000000     0.000000     0.000000     0.000000     0.000000


--------------------------------------------------------------------------------------------------------




 Dimension of arrays:
   k-points           NKPTS =     24   k-points in BZ     NKDIM =     24   number of bands    NBANDS=    307
   number of dos      NEDOS =    301   number of ions     NIONS =     32
   non local maximal  LDIM  =      6   non local SUM 2l+1 LMDIM =     18
   total plane-waves  NPLWV = 110592
   max r-space proj   IRMAX =   5103   max aug-charges    IRDMAX=   9337
   dimension x,y,z NGX =    48 NGY =   48 NGZ =   48
   dimension x,y,z NGXF=    96 NGYF=   96 NGZF=   96
   support grid    NGXF=    96 NGYF=   96 NGZF=   96
   ions per type =              32
 NGX,Y,Z   is equivalent  to a cutoff of  10.16, 10.16, 10.16 a.u.
 NGXF,Y,Z  is equivalent  to a cutoff of  20.32, 20.32, 20.32 a.u.


 I would recommend the setting:
   dimension x,y,z NGX =    44 NGY =   44 NGZ =   44
 SYSTEM =  unknown system                          
 POSCAR =  Pd                                      

 Startparameter for this run:
   NWRITE =      2    write-flag & timer
   PREC   = a         normal or accurate (medium, high low for compatibility)
   ISTART =      0    job   : 0-new  1-cont  2-samecut
   ICHARG =      2    charge: 1-file 2-atom 10-const
   ISPIN  =      1    spin polarized calculation?
   LNONCOLLINEAR =      F non collinear calculations
   LSORBIT =      F    spin-orbit coupling
   INIWAV =      1    electr: 0-lowe 1-rand  2-diag
   LASPH  =      F    aspherical Exc in radial PAW
   METAGGA=      F    non-selfconsistent MetaGGA calc.

 Electronic Relaxation 1
   ENCUT  =  300.0 eV  22.05 Ry    4.70 a.u.  11.09 11.09 11.09*2*pi/ulx,y,z
   ENINI  =  300.0     initial cutoff
   ENAUG  =  473.1 eV  augmentation charge cutoff
   NELM   =     60;   NELMIN=  2; NELMDL= -5     # of ELM steps 
   EDIFF  = 0.1E-04   stopping-criterion for ELM
   LREAL  =      T    real-space projection
   NLSPLINE    = F    spline interpolate recip. space projectors
   LCOMPAT=      F    compatible to vasp.4.4
   GGA_COMPAT  = T    GGA compatible to vasp.4.4-vasp.4.6
   LMAXPAW     = -100 max onsite density
   LMAXMIX     =    2 max onsite mixed and CHGCAR
   VOSKOWN=      0    Vosko Wilk Nusair interpolation
   ROPT   =   -0.00025
 Ionic relaxation
   EDIFFG = 0.1E-03   stopping-criterion for IOM
   NSW    =      0    number of steps for IOM
   NBLOCK =      1;   KBLOCK =      1    inner block; outer block 
   IBRION =     -1    ionic relax: 0-MD 1-quasi-New 2-CG
   NFREE  =      0    steps in history (QN), initial steepest desc. (CG)
   ISIF   =      2    stress and relaxation
   IWAVPR =      0    prediction:  0-non 1-charg 2-wave 3-comb
   ISYM   =      0    0-nonsym 1-usesym 2-fastsym
   LCORR  =      T    Harris-Foulkes like correction to forces

   POTIM  = 0.5000    time-step for ionic-motion
   TEIN   =    0.0    initial temperature
   TEBEG  =    0.0;   TEEND  =   0.0 temperature during run
   SMASS  =  -3.00    Nose mass-parameter (am)
   estimated Nose-frequenzy (Omega)   =  0.10E-29 period in steps =****** mass=  -0.141E-26a.u.
   SCALEE = 1.0000    scale energy and forces
   NPACO  =    256;   APACO  = 16.0  distance and # of slots for P.C.
   PSTRESS=    0.0 pullay stress

  Mass of Ions in am
   POMASS = 106.42
  Ionic Valenz
   ZVAL   =  16.00
  Atomic Wigner-Seitz radii
   RWIGS  =  -1.00
  virtual crystal weights 
   VCA    =   1.00
   NELECT =     512.0000    total number of electrons
   NUPDOWN=      -1.0000    fix difference up-down

 DOS related values:
   EMIN   =  10.00;   EMAX   =-10.00  energy-range for DOS
   EFERMI =   0.00
   ISMEAR =     1;   SIGMA  =   0.10  broadening in eV -4-tet -1-fermi 0-gaus

 Electronic relaxation 2 (details)
   IALGO  =     38    algorithm
   LDIAG  =      T    sub-space diagonalisation (order eigenvalues)
   LSUBROT=      T    optimize rotation matrix (better conditioning)
   TURBO    =      0    0=normal 1=particle mesh
   IRESTART =      0    0=no restart 2=restart with 2 vectors
   NREBOOT  =      0    no. of reboots
   NMIN     =      0    reboot dimension
   EREF     =   0.00    reference energy to select bands
   IMIX   =      4    mixing-type and parameters
     AMIX     =   0.40;   BMIX     =  1.00
     AMIX_MAG =   1.60;   BMIX_MAG =  1.00
     AMIN     =   0.10
     WC   =   100.;   INIMIX=   1;  MIXPRE=   1;  MAXMIX= -45

 Intra band minimization:
   WEIMIN = 0.0000     energy-eigenvalue tresh-hold
   EBREAK =  0.81E-08  absolut break condition
   DEPER  =   0.30     relativ break condition  

   TIME   =   0.40     timestep for ELM

  volume/ion in A,a.u.               =      15.14       102.17
  Fermi-wavevector in a.u.,A,eV,Ry     =   1.667531  3.151177 37.833172  2.780660
  Thomas-Fermi vector in A             =   2.753537
 
 Write flags
   LWAVE  =      F    write WAVECAR
   LCHARG =      T    write CHGCAR
   LVTOT  =      F    write LOCPOT, total local potential
   LVHAR  =      F    write LOCPOT, Hartree potential only
   LELF   =      F    write electronic localiz. function (ELF)
   LORBIT =      0    0 simple, 1 ext, 2 COOP (PROOUT)


 Dipole corrections
   LMONO  =      F    monopole corrections only (constant potential shift)
   LDIPOL =      F    correct potential (dipole corrections)
   IDIPOL =      0    1-x, 2-y, 3-z, 4-all directions 
   EPSILON=  1.0000000 bulk dielectric constant

 Exchange correlation treatment:
   GGA     =    --    GGA type
   LEXCH   =     8    internal setting for exchange type
   VOSKOWN=      0    Vosko Wilk Nusair interpolation
   LHFCALC =     F    Hartree Fock is set to
   LHFONE  =     F    Hartree Fock one center treatment
   AEXX    =    0.0000 exact exchange contribution

 Linear response parameters
   LEPSILON=     F    determine dielectric tensor
   LRPA    =     F    only Hartree local field effects (RPA)
   LNABLA  =     F    use nabla operator in PAW spheres
   LVEL    =     F    velocity operator in full k-point grid
   LINTERFAST=   F  fast interpolation
   KINTER  =     0    interpolate to denser k-point grid
   CSHIFT  =0.1000    complex shift for real part using Kramers Kronig
   OMEGAMAX=  -1.0    maximum frequency
   DEG_THRESHOLD= 0.2000000E-02 threshold for treating states as degnerate
   RTIME   =    0.100 relaxation time in fs

 Orbital magnetization related:
   ORBITALMAG=     F  switch on orbital magnetization
   LCHIMAG   =     F  perturbation theory with respect to B field
   DQ        =  0.001000  dq finite difference perturbation B field



--------------------------------------------------------------------------------------------------------


 Static calculation
 charge density and potential will be updated during run
 non-spin polarized calculation
 Variant of blocked Davidson
 Davidson routine will perform the subspace rotation
 perform sub-space diagonalisation
    after iterative eigenvector-optimisation
 modified Broyden-mixing scheme, WC =      100.0
 initial mixing is a Kerker type mixing with AMIX =  0.4000 and BMIX =      1.0000
 Hartree-type preconditioning will be used
 using additional bands           51
 real space projection scheme for non local part
 use partial core corrections
 calculate Harris-corrections to forces 
   (improved forces if not selfconsistent)
 use gradient corrections 
 use of overlap-Matrix (Vanderbilt PP)
 Methfessel and Paxton  Order N= 1 SIGMA  =   0.10


--------------------------------------------------------------------------------------------------------


  energy-cutoff  :      300.00
  volume of cell :      484.48
      direct lattice vectors                 reciprocal lattice vectors
     7.854000000 -0.000000000 -0.000000000     0.127323657  0.000000000 -0.000000000
    -0.000000000  7.854000000  0.000000000     0.000000000  0.127323657 -0.000000000
     0.000000000  0.000000000  7.854000000     0.000000000 -0.000000000  0.127323657

  length of vectors
     7.854000000  7.854000000  7.854000000     0.127323657  0.127323657  0.127323657


 
 k-points in units of 2pi/SCALE and weight: Server version 2017.10.18. K-point grid 
   0.03183091  0.01591546  0.11671335       0.042
   0.06366183  0.01591546  0.09549274       0.042
   0.09549274  0.01591546  0.07427213       0.042
   0.00000000  0.01591546  0.05305152       0.042
   0.03183091  0.01591546  0.03183091       0.042
   0.06366183  0.01591546  0.01061030       0.042
   0.09549274  0.01591546  0.11671335       0.042
   0.00000000  0.01591546  0.09549274       0.042
   0.03183091  0.01591546  0.07427213       0.042
   0.06366183  0.01591546  0.05305152       0.042
   0.09549274  0.01591546  0.03183091       0.042
   0.00000000  0.01591546  0.01061030       0.042
   0.03183091  0.04774637  0.09549274       0.042
   0.06366183  0.04774637  0.07427213       0.042
   0.09549274  0.04774637  0.05305152       0.042
   0.00000000  0.04774637  0.03183091       0.042
   0.03183091  0.04774637  0.01061030       0.042
   0.06366183  0.04774637  0.11671335       0.042
   0.09549274  0.04774637  0.09549274       0.042
   0.00000000  0.04774637  0.07427213       0.042
   0.03183091  0.04774637  0.05305152       0.042
   0.06366183  0.04774637  0.03183091       0.042
   0.09549274  0.04774637  0.01061030       0.042
   0.00000000  0.04774637  0.11671335       0.042
 
 k-points in reciprocal lattice and weights: Server version 2017.10.18. K-point grid 
   0.25000000  0.12500000  0.91666667       0.042
   0.50000000  0.12500000  0.75000000       0.042
   0.75000000  0.12500000  0.58333333       0.042
   0.00000000  0.12500000  0.41666667       0.042
   0.25000000  0.12500000  0.25000000       0.042
   0.50000000  0.12500000  0.08333333       0.042
   0.75000000  0.12500000  0.91666667       0.042
   0.00000000  0.12500000  0.75000000       0.042
   0.25000000  0.12500000  0.58333333       0.042
   0.50000000  0.12500000  0.41666667       0.042
   0.75000000  0.12500000  0.25000000       0.042
   0.00000000  0.12500000  0.08333333       0.042
   0.25000000  0.37500000  0.75000000       0.042
   0.50000000  0.37500000  0.58333333       0.042
   0.75000000  0.37500000  0.41666667       0.042
   0.00000000  0.37500000  0.25000000       0.042
   0.25000000  0.37500000  0.08333333       0.042
   0.50000000  0.37500000  0.91666667       0.042
   0.75000000  0.37500000  0.75000000       0.042
   0.00000000  0.37500000  0.58333333       0.042
   0.25000000  0.37500000  0.41666667       0.042
   0.50000000  0.37500000  0.25000000       0.042
   0.75000000  0.37500000  0.08333333       0.042
   0.00000000  0.37500000  0.91666667       0.042
 
 position of ions in fractional coordinates (direct lattice) 
   0.98640338  0.01359662  0.01359662
   0.99405131  0.25594869  0.25594869
   0.01216255  0.48783745  0.48783745
   0.00888076  0.74111924  0.74111924
   0.23640338  0.01359662  0.26359662
   0.24405131  0.25594869  0.50594869
   0.26216255  0.48783745  0.73783745
   0.24405131  0.75594869  0.00594869
   0.48640338  0.01359662  0.51359662
   0.49405131  0.25594869  0.75594869
   0.48640338  0.51359662  0.01359662
   0.49405131  0.75594869  0.25594869
   0.73640338  0.01359662  0.76359662
   0.75267090  0.24732910  0.99732910
   0.73640338  0.51359662  0.26359662
   0.74405131  0.75594869  0.50594869
   0.23640338  0.26359662  0.01359662
   0.24405131  0.50594869  0.25594869
   0.26216255  0.73783745  0.48783745
   0.24405131  0.00594869  0.75594869
   0.48640338  0.26359662  0.26359662
   0.49405131  0.50594869  0.50594869
   0.51216255  0.73783745  0.73783745
   0.50267090  0.99732910  0.99732910
   0.73640338  0.26359662  0.51359662
   0.74405131  0.50594869  0.75594869
   0.73640338  0.76359662  0.01359662
   0.75267090  0.99732910  0.24732910
   0.01216255  0.23783745  0.73783745
   0.99405131  0.50594869  0.00594869
   0.01216255  0.73783745  0.23783745
   0.99405131  0.00594869  0.50594869
 
 position of ions in cartesian coordinates  (Angst):
   7.74721215  0.10678785  0.10678785
   7.80727897  2.01022103  2.01022103
   0.09552464  3.83147536  3.83147536
   0.06974951  5.82075049  5.82075049
   1.85671215  0.10678785  2.07028785
   1.91677897  2.01022103  3.97372103
   2.05902464  3.83147536  5.79497536
   1.91677897  5.93722103  0.04672103
   3.82021215  0.10678785  4.03378785
   3.88027897  2.01022103  5.93722103
   3.82021215  4.03378785  0.10678785
   3.88027897  5.93722103  2.01022103
   5.78371215  0.10678785  5.99728785
   5.91147728  1.94252272  7.83302272
   5.78371215  4.03378785  2.07028785
   5.84377897  5.93722103  3.97372103
   1.85671215  2.07028785  0.10678785
   1.91677897  3.97372103  2.01022103
   2.05902464  5.79497536  3.83147536
   1.91677897  0.04672103  5.93722103
   3.82021215  2.07028785  2.07028785
   3.88027897  3.97372103  3.97372103
   4.02252464  5.79497536  5.79497536
   3.94797728  7.83302272  7.83302272
   5.78371215  2.07028785  4.03378785
   5.84377897  3.97372103  5.93722103
   5.78371215  5.99728785  0.10678785
   5.91147728  7.83302272  1.94252272
   0.09552464  1.86797536  5.79497536
   7.80727897  3.97372103  0.04672103
   0.09552464  5.79497536  1.86797536
   7.80727897  0.04672103  3.97372103
 


--------------------------------------------------------------------------------------------------------


 k-point  1 :   0.2500 0.1250 0.9167  plane waves:    5707
 k-point  2 :   0.5000 0.1250 0.7500  plane waves:    5710
 k-point  3 :   0.7500 0.1250 0.5833  plane waves:    5715
 k-point  4 :   0.0000 0.1250 0.4167  plane waves:    5721
 k-point  5 :   0.2500 0.1250 0.2500  plane waves:    5714
 k-point  6 :   0.5000 0.1250 0.0833  plane waves:    5712
 k-point  7 :   0.7500 0.1250 0.9167  plane waves:    5707
 k-point  8 :   0.0000 0.1250 0.7500  plane waves:    5709
 k-point  9 :   0.2500 0.1250 0.5833  plane waves:    5715
 k-point 10 :   0.5000 0.1250 0.4167  plane waves:    5718
 k-point 11 :   0.7500 0.1250 0.2500  plane waves:    5714
 k-point 12 :   0.0000 0.1250 0.0833  plane waves:    5703
 k-point 13 :   0.2500 0.3750 0.7500  plane waves:    5726
 k-point 14 :   0.5000 0.3750 0.5833  plane waves:    5738
 k-point 15 :   0.7500 0.3750 0.4167  plane waves:    5731
 k-point 16 :   0.0000 0.3750 0.2500  plane waves:    5721
 k-point 17 :   0.2500 0.3750 0.0833  plane waves:    5713
 k-point 18 :   0.5000 0.3750 0.9167  plane waves:    5716
 k-point 19 :   0.7500 0.3750 0.7500  plane waves:    5726
 k-point 20 :   0.0000 0.3750 0.5833  plane waves:    5702
 k-point 21 :   0.2500 0.3750 0.4167  plane waves:    5731
 k-point 22 :   0.5000 0.3750 0.2500  plane waves:    5728
 k-point 23 :   0.7500 0.3750 0.0833  plane waves:    5713
 k-point 24 :   0.0000 0.3750 0.9167  plane waves:    5709

 maximum number of plane-waves:      5738
 maximum index in each direction: 
   IXMAX=   11   IYMAX=   10   IZMAX=   11
   IXMIN=  -11   IYMIN=  -11   IZMIN=  -12

 NGX is ok and might be reduce to  46
 NGY is ok and might be reduce to  44
 NGZ is ok and might be reduce to  48

 total amount of memory used by VASP on root node   849901. kBytes
========================================================================

   base      :      30000. kBytes
   nonlr-proj:      27543. kBytes
   grid      :      47517. kBytes
   one-center:        497. kBytes
   wavefun   :     744344. kBytes
 
 For storing wavefunctions  673.92 MBYTES are necessary
 For predicting wavefunctions   69.67 MBYTES are necessary
 Broyden mixing: mesh for mixing (old mesh)
   NGX = 23   NGY = 23   NGZ = 23
  (NGX  = 96   NGY  = 96   NGZ  = 96)
  gives a total of  12167 points

 initial charge density was supplied:
 charge density of overlapping atoms calculated
 number of electron     512.0000000 magnetization 
 keeping initial charge density in first step


--------------------------------------------------------------------------------------------------------


 Maximum index for non-local projection operator         4917
 Maximum index for augmentation-charges         8870 (set IRDMAX)


--------------------------------------------------------------------------------------------------------


 First call to EWALD:  gamma=   0.226
 Maximum number of real-space cells 3x 3x 3
 Maximum number of reciprocal cells 3x 3x 3

    FEWALD:  cpu time    0.01: real time    0.01


----------------------------------------- Iteration    1(   1)  ---------------------------------------


    POTLOK:  cpu time    0.95: real time    0.95
    SETDIJ:  cpu time    0.17: real time    0.17
     EDDAV:  cpu time  739.26: real time  739.34
       DOS:  cpu time    0.04: real time    0.04
    --------------------------------------------
      LOOP:  cpu time  740.41: real time  740.50

 eigenvalue-minimisations  : 16016
 total energy-change (2. order) : 0.5596381E+04  (-0.2280268E+05)
 number of electron     512.0000000 magnetization 
 augmentation part      512.0000000 magnetization 

 Free energy of the ion-electron system (eV)
  ---------------------------------------------------
  alpha Z        PSCENC =      4309.77481446
  Ewald energy   TEWEN  =    -68528.85759445
  -1/2 Hartree   DENC   =    -18209.24803662
  -exchange  EXHF       =         0.00000000
  -V(xc)+E(xc)   XCENC  =      2650.16069523
  PAW double counting   =     72255.69020719   -71333.34611920
  entropy T*S    EENTRO =         0.00096992
  eigenvalues    EBANDS =       565.56501841
  atomic energy  EATOM  =     83886.64112113
  ---------------------------------------------------
  free energy    TOTEN  =      5596.38107607 eV

  energy without entropy =     5596.38010615  energy(sigma->0) =     5596.38075276


--------------------------------------------------------------------------------------------------------




----------------------------------------- Iteration    1(   2)  ---------------------------------------


     EDDAV:  cpu time  715.08: real time  715.18
       DOS:  cpu time    0.04: real time    0.04
    --------------------------------------------
      LOOP:  cpu time  715.12: real time  715.22

 eigenvalue-minimisations  : 15185
 total energy-change (2. order) :-0.5435782E+04  (-0.5267782E+04)
 number of electron     512.0000000 magnetization 
 augmentation part      512.0000000 magnetization 

 Free energy of the ion-electron system (eV)
  ---------------------------------------------------
  alpha Z        PSCENC =      4309.77481446
  Ewald energy   TEWEN  =    -68528.85759445
  -1/2 Hartree   DENC   =    -18209.24803662
  -exchange  EXHF       =         0.00000000
  -V(xc)+E(xc)   XCENC  =      2650.16069523
  PAW double counting   =     72255.69020719   -71333.34611920
  entropy T*S    EENTRO =        -0.00044556
  eigenvalues    EBANDS =     -4870.21584258
  atomic energy  EATOM  =     83886.64112113
  ---------------------------------------------------
  free energy    TOTEN  =       160.59879961 eV

  energy without entropy =      160.59924517  energy(sigma->0) =      160.59894813


--------------------------------------------------------------------------------------------------------




----------------------------------------- Iteration    1(   3)  ---------------------------------------


     EDDAV:  cpu time  725.52: real time  725.61
       DOS:  cpu time    0.04: real time    0.04
    --------------------------------------------
      LOOP:  cpu time  725.56: real time  725.66

 eigenvalue-minimisations  : 15637
 total energy-change (2. order) :-0.3243507E+03  (-0.2946763E+03)
 number of electron     512.0000000 magnetization 
 augmentation part      512.0000000 magnetization 

 Free energy of the ion-electron system (eV)
  ---------------------------------------------------
  alpha Z        PSCENC =      4309.77481446
  Ewald energy   TEWEN  =    -68528.85759445
  -1/2 Hartree   DENC   =    -18209.24803662
  -exchange  EXHF       =         0.00000000
  -V(xc)+E(xc)   XCENC  =      2650.16069523
  PAW double counting   =     72255.69020719   -71333.34611920
  entropy T*S    EENTRO =        -0.00191407
  eigenvalues    EBANDS =     -5194.56503795
  atomic energy  EATOM  =     83886.64112113
  ---------------------------------------------------
  free energy    TOTEN  =      -163.75186428 eV

  energy without entropy =     -163.74995020  energy(sigma->0) =     -163.75122625


--------------------------------------------------------------------------------------------------------




----------------------------------------- Iteration    1(   4)  ---------------------------------------


     EDDAV:  cpu time  729.47: real time  729.54
       DOS:  cpu time    0.04: real time    0.04
    --------------------------------------------
      LOOP:  cpu time  729.51: real time  729.59

 eigenvalue-minimisations  : 15541
 total energy-change (2. order) :-0.8338738E+01  (-0.8254261E+01)
 number of electron     512.0000000 magnetization 
 augmentation part      512.0000000 magnetization 

 Free energy of the ion-electron system (eV)
  ---------------------------------------------------
  alpha Z        PSCENC =      4309.77481446
  Ewald energy   TEWEN  =    -68528.85759445
  -1/2 Hartree   DENC   =    -18209.24803662
  -exchange  EXHF       =         0.00000000
  -V(xc)+E(xc)   XCENC  =      2650.16069523
  PAW double counting   =     72255.69020719   -71333.34611920
  entropy T*S    EENTRO =        -0.00100873
  eigenvalues    EBANDS =     -5202.90468117
  atomic energy  EATOM  =     83886.64112113
  ---------------------------------------------------
  free energy    TOTEN  =      -172.09060215 eV

  energy without entropy =     -172.08959343  energy(sigma->0) =     -172.09026591


--------------------------------------------------------------------------------------------------------




----------------------------------------- Iteration    1(   5)  ---------------------------------------


     EDDAV:  cpu time  720.68: real time  720.75
       DOS:  cpu time    0.04: real time    0.04
    CHARGE:  cpu time   45.72: real time   45.72
    MIXING:  cpu time    0.02: real time    0.02
    --------------------------------------------
      LOOP:  cpu time  766.45: real time  766.54

 eigenvalue-minimisations  : 15528
 total energy-change (2. order) :-0.8149764E-01  (-0.8146705E-01)
 number of electron     512.0000720 magnetization 
 augmentation part      239.2333026 magnetization 

 Broyden mixing:
  rms(total) = 0.27119E+01    rms(broyden)= 0.27088E+01
  rms(prec ) = 0.34147E+01
  weight for this iteration     100.00

 Free energy of the ion-electron system (eV)
  ---------------------------------------------------
  alpha Z        PSCENC =      4309.77481446
  Ewald energy   TEWEN  =    -68528.85759445
  -1/2 Hartree   DENC   =    -18209.24803662
  -exchange  EXHF       =         0.00000000
  -V(xc)+E(xc)   XCENC  =      2650.16069523
  PAW double counting   =     72255.69020719   -71333.34611920
  entropy T*S    EENTRO =        -0.00100895
  eigenvalues    EBANDS =     -5202.98617859
  atomic energy  EATOM  =     83886.64112113
  ---------------------------------------------------
  free energy    TOTEN  =      -172.17209980 eV

  energy without entropy =     -172.17109085  energy(sigma->0) =     -172.17176348


--------------------------------------------------------------------------------------------------------




----------------------------------------- Iteration    1(   6)  ---------------------------------------


    POTLOK:  cpu time    0.94: real time    0.95
    SETDIJ:  cpu time    0.16: real time    0.16
     EDDAV:  cpu time  719.19: real time  719.27
       DOS:  cpu time    0.04: real time    0.04
    CHARGE:  cpu time   45.74: real time   45.74
    MIXING:  cpu time    0.02: real time    0.02
    --------------------------------------------
      LOOP:  cpu time  766.10: real time  766.19

 eigenvalue-minimisations  : 15338
 total energy-change (2. order) : 0.7691715E+01  (-0.2912905E+01)
 number of electron     512.0000732 magnetization 
 augmentation part      245.3857650 magnetization 

 Broyden mixing:
  rms(total) = 0.68209E+00    rms(broyden)= 0.68189E+00
  rms(prec ) = 0.88450E+00
  weight for this iteration     100.00

 eigenvalues of (default mixing * dielectric matrix)
  average eigenvalue GAMMA=   1.1227
  1.1227

 Free energy of the ion-electron system (eV)
  ---------------------------------------------------
  alpha Z        PSCENC =      4309.77481446
  Ewald energy   TEWEN  =    -68528.85759445
  -1/2 Hartree   DENC   =    -17681.96777399
  -exchange  EXHF       =         0.00000000
  -V(xc)+E(xc)   XCENC  =      2627.10554799
  PAW double counting   =     74007.38396402   -73147.08145873
  entropy T*S    EENTRO =        -0.00260771
  eigenvalues    EBANDS =     -5637.47639738
  atomic energy  EATOM  =     83886.64112113
  ---------------------------------------------------
  free energy    TOTEN  =      -164.48038466 eV

  energy without entropy =     -164.47777694  energy(sigma->0) =     -164.47951542


--------------------------------------------------------------------------------------------------------




----------------------------------------- Iteration    1(   7)  ---------------------------------------


    POTLOK:  cpu time    0.94: real time    0.95
    SETDIJ:  cpu time    0.17: real time    0.17
     EDDAV:  cpu time  717.04: real time  717.12
       DOS:  cpu time    0.04: real time    0.04
    CHARGE:  cpu time   45.54: real time   45.54
    MIXING:  cpu time    0.02: real time    0.02
    --------------------------------------------
      LOOP:  cpu time  763.76: real time  763.85

 eigenvalue-minimisations  : 15488
 total energy-change (2. order) :-0.9988451E+00  (-0.3104382E+00)
 number of electron     512.0000734 magnetization 
 augmentation part      245.2430202 magnetization 

 Broyden mixing:
  rms(total) = 0.10862E+01    rms(broyden)= 0.10851E+01
  rms(prec ) = 0.20870E+01
  weight for this iteration     100.00

 eigenvalues of (default mixing * dielectric matrix)
  average eigenvalue GAMMA=   0.7329
  1.1845  0.2812

 Free energy of the ion-electron system (eV)
  ---------------------------------------------------
  alpha Z        PSCENC =      4309.77481446
  Ewald energy   TEWEN  =    -68528.85759445
  -1/2 Hartree   DENC   =    -17673.76585921
  -exchange  EXHF       =         0.00000000
  -V(xc)+E(xc)   XCENC  =      2626.45376986
  PAW double counting   =     75044.58809190   -74197.31506235
  entropy T*S    EENTRO =        -0.00032286
  eigenvalues    EBANDS =     -5632.99818828
  atomic energy  EATOM  =     83886.64112113
  ---------------------------------------------------
  free energy    TOTEN  =      -165.47922980 eV

  energy without entropy =     -165.47890694  energy(sigma->0) =     -165.47912218


--------------------------------------------------------------------------------------------------------




----------------------------------------- Iteration    1(   8)  ---------------------------------------


    POTLOK:  cpu time    0.93: real time    0.93
    SETDIJ:  cpu time    0.16: real time    0.17
     EDDAV:  cpu time  739.80: real time  739.88
       DOS:  cpu time    0.04: real time    0.04
    CHARGE:  cpu time   45.48: real time   45.48
    MIXING:  cpu time    0.02: real time    0.02
    --------------------------------------------
      LOOP:  cpu time  786.44: real time  786.53

 eigenvalue-minimisations  : 16114
 total energy-change (2. order) : 0.1147135E+01  (-0.2106049E+00)
 number of electron     512.0000733 magnetization 
 augmentation part      245.3079213 magnetization 

 Broyden mixing:
  rms(total) = 0.45847E+00    rms(broyden)= 0.45642E+00
  rms(prec ) = 0.79556E+00
  weight for this iteration     100.00

 eigenvalues of (default mixing * dielectric matrix)
  average eigenvalue GAMMA=   0.7570
  1.3769  0.6787  0.2153

 Free energy of the ion-electron system (eV)
  ---------------------------------------------------
  alpha Z        PSCENC =      4309.77481446
  Ewald energy   TEWEN  =    -68528.85759445
  -1/2 Hartree   DENC   =    -17666.68482229
  -exchange  EXHF       =         0.00000000
  -V(xc)+E(xc)   XCENC  =      2626.25712132
  PAW double counting   =     75255.92330073   -74411.23352038
  entropy T*S    EENTRO =        -0.00687318
  eigenvalues    EBANDS =     -5636.14564249
  atomic energy  EATOM  =     83886.64112113
  ---------------------------------------------------
  free energy    TOTEN  =      -164.33209515 eV

  energy without entropy =     -164.32522197  energy(sigma->0) =     -164.32980409


--------------------------------------------------------------------------------------------------------




----------------------------------------- Iteration    1(   9)  ---------------------------------------


    POTLOK:  cpu time    0.92: real time    0.92
    SETDIJ:  cpu time    0.16: real time    0.16
     EDDAV:  cpu time  718.66: real time  718.75
       DOS:  cpu time    0.04: real time    0.04
    CHARGE:  cpu time   45.59: real time   45.59
    MIXING:  cpu time    0.02: real time    0.02
    --------------------------------------------
      LOOP:  cpu time  765.39: real time  765.50

 eigenvalue-minimisations  : 15560
 total energy-change (2. order) : 0.5510368E-01  (-0.6480480E-01)
 number of electron     512.0000733 magnetization 
 augmentation part      245.3001389 magnetization 

 Broyden mixing:
  rms(total) = 0.36411E+00    rms(broyden)= 0.36342E+00
  rms(prec ) = 0.60948E+00
  weight for this iteration     100.00

 eigenvalues of (default mixing * dielectric matrix)
  average eigenvalue GAMMA=   0.9454
  2.3790  0.9738  0.2446  0.1844

 Free energy of the ion-electron system (eV)
  ---------------------------------------------------
  alpha Z        PSCENC =      4309.77481446
  Ewald energy   TEWEN  =    -68528.85759445
  -1/2 Hartree   DENC   =    -17662.25521036
  -exchange  EXHF       =         0.00000000
  -V(xc)+E(xc)   XCENC  =      2626.03998993
  PAW double counting   =     75500.40960388   -74658.27074113
  entropy T*S    EENTRO =        -0.00046691
  eigenvalues    EBANDS =     -5637.75850801
  atomic energy  EATOM  =     83886.64112113
  ---------------------------------------------------
  free energy    TOTEN  =      -164.27699147 eV

  energy without entropy =     -164.27652456  energy(sigma->0) =     -164.27683583


--------------------------------------------------------------------------------------------------------




----------------------------------------- Iteration    1(  10)  ---------------------------------------


    POTLOK:  cpu time    0.92: real time    0.92
    SETDIJ:  cpu time    0.16: real time    0.16
     EDDAV:  cpu time  724.45: real time  724.56
       DOS:  cpu time    0.04: real time    0.04
    CHARGE:  cpu time   45.77: real time   45.77
    MIXING:  cpu time    0.02: real time    0.02
    --------------------------------------------
      LOOP:  cpu time  771.36: real time  771.47

 eigenvalue-minimisations  : 15530
 total energy-change (2. order) : 0.3298932E-01  (-0.2742263E-01)
 number of electron     512.0000734 magnetization 
 augmentation part      245.3318618 magnetization 

 Broyden mixing:
  rms(total) = 0.23380E+00    rms(broyden)= 0.23335E+00
  rms(prec ) = 0.42511E+00
  weight for this iteration     100.00

 eigenvalues of (default mixing * dielectric matrix)
  average eigenvalue GAMMA=   0.8383
  2.4989  0.9834  0.2674  0.2674  0.1744

 Free energy of the ion-electron system (eV)
  ---------------------------------------------------
  alpha Z        PSCENC =      4309.77481446
  Ewald energy   TEWEN  =    -68528.85759445
  -1/2 Hartree   DENC   =    -17645.45053399
  -exchange  EXHF       =         0.00000000
  -V(xc)+E(xc)   XCENC  =      2625.24557575
  PAW double counting   =     76389.20996911   -75555.98342157
  entropy T*S    EENTRO =        -0.00471902
  eigenvalues    EBANDS =     -5644.81921357
  atomic energy  EATOM  =     83886.64112113
  ---------------------------------------------------
  free energy    TOTEN  =      -164.24400214 eV

  energy without entropy =     -164.23928313  energy(sigma->0) =     -164.24242914


--------------------------------------------------------------------------------------------------------




----------------------------------------- Iteration    1(  11)  ---------------------------------------


    POTLOK:  cpu time    0.92: real time    0.92
    SETDIJ:  cpu time    0.16: real time    0.16
     EDDAV:  cpu time  723.17: real time  723.25
       DOS:  cpu time    0.04: real time    0.04
    CHARGE:  cpu time   45.67: real time   45.67
    MIXING:  cpu time    0.02: real time    0.02
    --------------------------------------------
      LOOP:  cpu time  769.98: real time  770.08

 eigenvalue-minimisations  : 15440
 total energy-change (2. order) : 0.6010732E-01  (-0.1266056E-01)
 number of electron     512.0000734 magnetization 
 augmentation part      245.3345423 magnetization 

 Broyden mixing:
  rms(total) = 0.55769E-01    rms(broyden)= 0.55037E-01
  rms(prec ) = 0.10685E+00
  weight for this iteration     100.00

 eigenvalues of (default mixing * dielectric matrix)
  average eigenvalue GAMMA=   0.7693
  2.5049  0.9846  0.4014  0.3202  0.1761  0.2287

 Free energy of the ion-electron system (eV)
  ---------------------------------------------------
  alpha Z        PSCENC =      4309.77481446
  Ewald energy   TEWEN  =    -68528.85759445
  -1/2 Hartree   DENC   =    -17642.30052544
  -exchange  EXHF       =         0.00000000
  -V(xc)+E(xc)   XCENC  =      2625.09801558
  PAW double counting   =     76572.29590066   -75740.53458371
  entropy T*S    EENTRO =        -0.00293961
  eigenvalues    EBANDS =     -5646.29810344
  atomic energy  EATOM  =     83886.64112113
  ---------------------------------------------------
  free energy    TOTEN  =      -164.18389482 eV

  energy without entropy =     -164.18095521  energy(sigma->0) =     -164.18291495


--------------------------------------------------------------------------------------------------------




----------------------------------------- Iteration    1(  12)  ---------------------------------------


    POTLOK:  cpu time    0.92: real time    0.93
    SETDIJ:  cpu time    0.15: real time    0.15
     EDDAV:  cpu time  718.06: real time  718.14
       DOS:  cpu time    0.04: real time    0.04
    CHARGE:  cpu time   45.59: real time   45.60
    MIXING:  cpu time    0.02: real time    0.02
    --------------------------------------------
      LOOP:  cpu time  764.79: real time  764.88

 eigenvalue-minimisations  : 15437
 total energy-change (2. order) : 0.9418127E-03  (-0.1945439E-02)
 number of electron     512.0000733 magnetization 
 augmentation part      245.3321939 magnetization 

 Broyden mixing:
  rms(total) = 0.38233E-01    rms(broyden)= 0.38130E-01
  rms(prec ) = 0.75531E-01
  weight for this iteration     100.00

 eigenvalues of (default mixing * dielectric matrix)
  average eigenvalue GAMMA=   0.7814
  2.5092  1.0527  0.9668  0.3072  0.1746  0.2294  0.2294

 Free energy of the ion-electron system (eV)
  ---------------------------------------------------
  alpha Z        PSCENC =      4309.77481446
  Ewald energy   TEWEN  =    -68528.85759445
  -1/2 Hartree   DENC   =    -17642.33331164
  -exchange  EXHF       =         0.00000000
  -V(xc)+E(xc)   XCENC  =      2625.10218425
  PAW double counting   =     76593.38015437   -75761.29521964
  entropy T*S    EENTRO =        -0.00339523
  eigenvalues    EBANDS =     -5646.59170626
  atomic energy  EATOM  =     83886.64112113
  ---------------------------------------------------
  free energy    TOTEN  =      -164.18295301 eV

  energy without entropy =     -164.17955778  energy(sigma->0) =     -164.18182127


--------------------------------------------------------------------------------------------------------




----------------------------------------- Iteration    1(  13)  ---------------------------------------


    POTLOK:  cpu time    0.92: real time    0.92
    SETDIJ:  cpu time    0.16: real time    0.16
     EDDAV:  cpu time  727.09: real time  727.17
       DOS:  cpu time    0.04: real time    0.04
    CHARGE:  cpu time   45.78: real time   45.81
    MIXING:  cpu time    0.02: real time    0.02
    --------------------------------------------
      LOOP:  cpu time  774.02: real time  774.13

 eigenvalue-minimisations  : 15608
 total energy-change (2. order) : 0.3872037E-03  (-0.6928116E-03)
 number of electron     512.0000734 magnetization 
 augmentation part      245.3360702 magnetization 

 Broyden mixing:
  rms(total) = 0.30762E-01    rms(broyden)= 0.30675E-01
  rms(prec ) = 0.61943E-01
  weight for this iteration     100.00

 eigenvalues of (default mixing * dielectric matrix)
  average eigenvalue GAMMA=   0.7549
  2.5113  1.3390  0.9789  0.3260  0.2571  0.2571  0.1749  0.1950

 Free energy of the ion-electron system (eV)
  ---------------------------------------------------
  alpha Z        PSCENC =      4309.77481446
  Ewald energy   TEWEN  =    -68528.85759445
  -1/2 Hartree   DENC   =    -17642.68221261
  -exchange  EXHF       =         0.00000000
  -V(xc)+E(xc)   XCENC  =      2625.12342113
  PAW double counting   =     76622.36365279   -75789.45105072
  entropy T*S    EENTRO =        -0.00331030
  eigenvalues    EBANDS =     -5647.09140723
  atomic energy  EATOM  =     83886.64112113
  ---------------------------------------------------
  free energy    TOTEN  =      -164.18256581 eV

  energy without entropy =     -164.17925551  energy(sigma->0) =     -164.18146237


--------------------------------------------------------------------------------------------------------




----------------------------------------- Iteration    1(  14)  ---------------------------------------


    POTLOK:  cpu time    0.94: real time    0.94
    SETDIJ:  cpu time    0.16: real time    0.16
     EDDAV:  cpu time  720.08: real time  720.17
       DOS:  cpu time    0.04: real time    0.04
    CHARGE:  cpu time   45.66: real time   45.67
    MIXING:  cpu time    0.03: real time    0.03
    --------------------------------------------
      LOOP:  cpu time  766.92: real time  767.03

 eigenvalue-minimisations  : 15541
 total energy-change (2. order) : 0.9223948E-03  (-0.2477172E-03)
 number of electron     512.0000734 magnetization 
 augmentation part      245.3367780 magnetization 

 Broyden mixing:
  rms(total) = 0.99756E-02    rms(broyden)= 0.99028E-02
  rms(prec ) = 0.18795E-01
  weight for this iteration     100.00

 eigenvalues of (default mixing * dielectric matrix)
  average eigenvalue GAMMA=   0.7721
  2.5206  1.5521  0.9733  0.7362  0.3112  0.2497  0.2497  0.1742  0.1821

 Free energy of the ion-electron system (eV)
  ---------------------------------------------------
  alpha Z        PSCENC =      4309.77481446
  Ewald energy   TEWEN  =    -68528.85759445
  -1/2 Hartree   DENC   =    -17642.96358892
  -exchange  EXHF       =         0.00000000
  -V(xc)+E(xc)   XCENC  =      2625.13625630
  PAW double counting   =     76633.31754393   -75800.03545246
  entropy T*S    EENTRO =        -0.00370299
  eigenvalues    EBANDS =     -5647.19104040
  atomic energy  EATOM  =     83886.64112113
  ---------------------------------------------------
  free energy    TOTEN  =      -164.18164341 eV

  energy without entropy =     -164.17794042  energy(sigma->0) =     -164.18040908


--------------------------------------------------------------------------------------------------------




----------------------------------------- Iteration    1(  15)  ---------------------------------------


    POTLOK:  cpu time    0.93: real time    0.93
    SETDIJ:  cpu time    0.16: real time    0.16
     EDDAV:  cpu time  727.51: real time  727.64
       DOS:  cpu time    0.04: real time    0.04
    CHARGE:  cpu time   46.52: real time   46.52
    MIXING:  cpu time    0.03: real time    0.03
    --------------------------------------------
      LOOP:  cpu time  775.18: real time  775.33

 eigenvalue-minimisations  : 15568
 total energy-change (2. order) :-0.5092166E-04  (-0.7215582E-04)
 number of electron     512.0000734 magnetization 
 augmentation part      245.3362882 magnetization 

 Broyden mixing:
  rms(total) = 0.11415E-01    rms(broyden)= 0.11395E-01
  rms(prec ) = 0.22566E-01
  weight for this iteration     100.00

 eigenvalues of (default mixing * dielectric matrix)
  average eigenvalue GAMMA=   0.7618
  2.5327  1.7610  0.9700  0.9700  0.3191  0.2548  0.2548  0.2036  0.1727  0.1792

 Free energy of the ion-electron system (eV)
  ---------------------------------------------------
  alpha Z        PSCENC =      4309.77481446
  Ewald energy   TEWEN  =    -68528.85759445
  -1/2 Hartree   DENC   =    -17643.33627086
  -exchange  EXHF       =         0.00000000
  -V(xc)+E(xc)   XCENC  =      2625.15277036
  PAW double counting   =     76640.66385656   -75807.04817861
  entropy T*S    EENTRO =        -0.00337777
  eigenvalues    EBANDS =     -5647.16883515
  atomic energy  EATOM  =     83886.64112113
  ---------------------------------------------------
  free energy    TOTEN  =      -164.18169433 eV

  energy without entropy =     -164.17831656  energy(sigma->0) =     -164.18056841


--------------------------------------------------------------------------------------------------------




----------------------------------------- Iteration    1(  16)  ---------------------------------------


    POTLOK:  cpu time    0.94: real time    0.95
    SETDIJ:  cpu time    0.17: real time    0.17
     EDDAV:  cpu time  717.69: real time  717.78
       DOS:  cpu time    0.04: real time    0.04
    CHARGE:  cpu time   46.35: real time   46.35
    MIXING:  cpu time    0.03: real time    0.03
    --------------------------------------------
      LOOP:  cpu time  765.23: real time  765.33

 eigenvalue-minimisations  : 15549
 total energy-change (2. order) : 0.1281429E-03  (-0.3005030E-04)
 number of electron     512.0000734 magnetization 
 augmentation part      245.3355131 magnetization 

 Broyden mixing:
  rms(total) = 0.31458E-02    rms(broyden)= 0.31167E-02
  rms(prec ) = 0.52811E-02
  weight for this iteration     100.00

 eigenvalues of (default mixing * dielectric matrix)
  average eigenvalue GAMMA=   0.7560
  2.5355  1.8058  0.9949  0.9949  0.6052  0.3118  0.2752  0.2384  0.2057  0.1757
  0.1728

 Free energy of the ion-electron system (eV)
  ---------------------------------------------------
  alpha Z        PSCENC =      4309.77481446
  Ewald energy   TEWEN  =    -68528.85759445
  -1/2 Hartree   DENC   =    -17643.73868048
  -exchange  EXHF       =         0.00000000
  -V(xc)+E(xc)   XCENC  =      2625.17010668
  PAW double counting   =     76647.45819756   -75813.50844316
  entropy T*S    EENTRO =        -0.00348368
  eigenvalues    EBANDS =     -5647.11760425
  atomic energy  EATOM  =     83886.64112113
  ---------------------------------------------------
  free energy    TOTEN  =      -164.18156619 eV

  energy without entropy =     -164.17808251  energy(sigma->0) =     -164.18040496


--------------------------------------------------------------------------------------------------------




----------------------------------------- Iteration    1(  17)  ---------------------------------------


    POTLOK:  cpu time    0.94: real time    0.94
    SETDIJ:  cpu time    0.17: real time    0.17
     EDDAV:  cpu time  586.68: real time  586.74
       DOS:  cpu time    0.04: real time    0.04
    --------------------------------------------
      LOOP:  cpu time  587.84: real time  587.90

 eigenvalue-minimisations  : 11880
 total energy-change (2. order) : 0.7859606E-05  (-0.6483679E-05)
 number of electron     512.0000734 magnetization 
 augmentation part      245.3355131 magnetization 

 Free energy of the ion-electron system (eV)
  ---------------------------------------------------
  alpha Z        PSCENC =      4309.77481446
  Ewald energy   TEWEN  =    -68528.85759445
  -1/2 Hartree   DENC   =    -17643.91219043
  -exchange  EXHF       =         0.00000000
  -V(xc)+E(xc)   XCENC  =      2625.17733974
  PAW double counting   =     76649.59232147   -75815.50276925
  entropy T*S    EENTRO =        -0.00353365
  eigenvalues    EBANDS =     -5647.09106736
  atomic energy  EATOM  =     83886.64112113
  ---------------------------------------------------
  free energy    TOTEN  =      -164.18155833 eV

  energy without entropy =     -164.17802468  energy(sigma->0) =     -164.18038045


--------------------------------------------------------------------------------------------------------




 average (electrostatic) potential at core
  the test charge radii are     1.0504
  (the norm of the test charge is              1.0000)
       1 -74.7031       2 -74.7523       3 -74.7388       4 -74.4372       5 -74.6079
       6 -74.9150       7 -74.7393       8 -74.6065       9 -74.6071      10 -74.7526
      11 -74.6057      12 -74.7533      13 -74.7078      14 -74.6183      15 -74.6050
      16 -74.6059      17 -74.6094      18 -74.9158      19 -74.7379      20 -74.6083
      21 -74.5900      22 -74.9126      23 -74.7200      24 -74.6264      25 -74.6091
      26 -74.6053      27 -74.7053      28 -74.6208      29 -74.7271      30 -74.6057
      31 -74.7221      32 -74.6065
 
 
 
 E-fermi :   9.2334     XC(G=0): -13.1862     alpha+bet :-16.1055


 k-point   1 :       0.2500    0.1250    0.9167
  band No.  band energies     occupation 
      1     -40.9967      2.00000
      2     -40.9673      2.00000
      3     -40.9654      2.00000
      4     -40.8881      2.00000
      5     -40.8833      2.00000
      6     -40.8819      2.00000
      7     -40.8292      2.00000
      8     -40.7918      2.00000
      9     -40.7879      2.00000
     10     -40.7750      2.00000
     11     -40.7669      2.00000
     12     -40.7615      2.00000
     13     -40.7552      2.00000
     14     -40.7197      2.00000
     15     -40.7172      2.00000
     16     -40.7134      2.00000
     17     -40.7065      2.00000
     18     -40.7046      2.00000
     19     -40.6743      2.00000
     20     -40.6692      2.00000
     21     -40.6604      2.00000
     22     -40.6544      2.00000
     23     -40.6505      2.00000
     24     -40.6477      2.00000
     25     -40.6409      2.00000
     26     -40.6338      2.00000
     27     -40.6316      2.00000
     28     -40.6249      2.00000
     29     -40.6214      2.00000
     30     -40.6134      2.00000
     31     -40.6062      2.00000
     32     -40.5943      2.00000
     33     -40.5858      2.00000
     34     -40.5799      2.00000
     35     -40.5759      2.00000
     36     -40.5739      2.00000
     37     -40.5636      2.00000
     38     -40.5588      2.00000
     39     -40.5549      2.00000
     40     -40.5522      2.00000
     41     -40.5484      2.00000
     42     -40.5409      2.00000
     43     -40.5376      2.00000
     44     -40.5337      2.00000
     45     -40.5299      2.00000
     46     -40.5271      2.00000
     47     -40.5248      2.00000
     48     -40.5197      2.00000
     49     -40.5142      2.00000
     50     -40.5073      2.00000
     51     -40.5053      2.00000
     52     -40.5009      2.00000
     53     -40.4959      2.00000
     54     -40.4903      2.00000
     55     -40.4865      2.00000
     56     -40.4833      2.00000
     57     -40.4775      2.00000
     58     -40.4725      2.00000
     59     -40.4697      2.00000
     60     -40.4662      2.00000
     61     -40.4633      2.00000
     62     -40.4547      2.00000
     63     -40.4537      2.00000
     64     -40.4485      2.00000
     65     -40.4469      2.00000
     66     -40.4440      2.00000
     67     -40.4406      2.00000
     68     -40.4357      2.00000
     69     -40.4317      2.00000
     70     -40.4298      2.00000
     71     -40.4268      2.00000
     72     -40.4238      2.00000
     73     -40.4217      2.00000
     74     -40.4134      2.00000
     75     -40.4102      2.00000
     76     -40.4072      2.00000
     77     -40.4045      2.00000
     78     -40.4012      2.00000
     79     -40.3969      2.00000
     80     -40.3927      2.00000
     81     -40.3917      2.00000
     82     -40.3879      2.00000
     83     -40.3826      2.00000
     84     -40.3804      2.00000
     85     -40.3745      2.00000
     86     -40.3701      2.00000
     87     -40.3660      2.00000
     88     -40.3635      2.00000
     89     -40.3609      2.00000
     90     -40.3577      2.00000
     91     -40.3522      2.00000
     92     -40.3491      2.00000
     93     -40.3401      2.00000
     94     -40.2866      2.00000
     95     -40.2839      2.00000
     96     -40.2230      2.00000
     97       2.4607      2.00000
     98       3.7117      2.00000
     99       4.0370      2.00000
    100       4.0474      2.00000
    101       4.0607      2.00000
    102       4.0911      2.00000
    103       4.1288      2.00000
    104       4.1519      2.00000
    105       4.1724      2.00000
    106       4.2370      2.00000
    107       4.2808      2.00000
    108       4.3028      2.00000
    109       4.3418      2.00000
    110       4.3827      2.00000
    111       4.4716      2.00000
    112       4.5734      2.00000
    113       4.6485      2.00000
    114       4.7086      2.00000
    115       4.7561      2.00000
    116       4.7933      2.00000
    117       4.8195      2.00000
    118       4.8521      2.00000
    119       4.8729      2.00000
    120       4.9335      2.00000
    121       4.9626      2.00000
    122       4.9802      2.00000
    123       4.9988      2.00000
    124       5.0341      2.00000
    125       5.0760      2.00000
    126       5.1062      2.00000
    127       5.1231      2.00000
    128       5.1480      2.00000
    129       5.1871      2.00000
    130       5.2168      2.00000
    131       5.2385      2.00000
    132       5.3052      2.00000
    133       5.3418      2.00000
    134       5.3616      2.00000
    135       5.3982      2.00000
    136       5.4455      2.00000
    137       5.4689      2.00000
    138       5.5232      2.00000
    139       5.5321      2.00000
    140       5.5942      2.00000
    141       5.6327      2.00000
    142       5.6688      2.00000
    143       5.6886      2.00000
    144       5.7097      2.00000
    145       5.7570      2.00000
    146       5.7696      2.00000
    147       5.7936      2.00000
    148       5.8548      2.00000
    149       5.8816      2.00000
    150       5.9064      2.00000
    151       5.9324      2.00000
    152       5.9685      2.00000
    153       5.9816      2.00000
    154       6.0433      2.00000
    155       6.0785      2.00000
    156       6.0926      2.00000
    157       6.1299      2.00000
    158       6.1530      2.00000
    159       6.1647      2.00000
    160       6.1918      2.00000
    161       6.1956      2.00000
    162       6.2081      2.00000
    163       6.2418      2.00000
    164       6.2570      2.00000
    165       6.2775      2.00000
    166       6.3037      2.00000
    167       6.3334      2.00000
    168       6.3516      2.00000
    169       6.3815      2.00000
    170       6.4241      2.00000
    171       6.4281      2.00000
    172       6.4655      2.00000
    173       6.4887      2.00000
    174       6.5310      2.00000
    175       6.5658      2.00000
    176       6.5934      2.00000
    177       6.6239      2.00000
    178       6.6474      2.00000
    179       6.6829      2.00000
    180       6.7017      2.00000
    181       6.7254      2.00000
    182       6.7394      2.00000
    183       6.8193      2.00000
    184       6.8313      2.00000
    185       6.8694      2.00000
    186       6.9547      2.00000
    187       6.9826      2.00000
    188       7.0213      2.00000
    189       7.0891      2.00000
    190       7.1060      2.00000
    191       7.1327      2.00000
    192       7.1845      2.00000
    193       7.2017      2.00000
    194       7.2516      2.00000
    195       7.2762      2.00000
    196       7.3477      2.00000
    197       7.3691      2.00000
    198       7.3844      2.00000
    199       7.4437      2.00000
    200       7.4792      2.00000
    201       7.5026      2.00000
    202       7.5926      2.00000
    203       7.6253      2.00000
    204       7.6616      2.00000
    205       7.6961      2.00000
    206       7.7289      2.00000
    207       7.7746      2.00000
    208       7.7863      2.00000
    209       7.8143      2.00000
    210       7.8617      2.00000
    211       7.8991      2.00000
    212       7.9177      2.00000
    213       7.9337      2.00000
    214       7.9858      2.00000
    215       8.0215      2.00000
    216       8.0355      2.00000
    217       8.0690      2.00000
    218       8.1076      2.00000
    219       8.1239      2.00000
    220       8.1568      2.00000
    221       8.2020      2.00000
    222       8.2232      2.00000
    223       8.2486      2.00000
    224       8.2668      2.00000
    225       8.2994      2.00000
    226       8.3201      2.00000
    227       8.3472      2.00000
    228       8.3686      2.00000
    229       8.3820      2.00000
    230       8.4076      2.00000
    231       8.4353      2.00000
    232       8.4952      2.00000
    233       8.5074      2.00000
    234       8.5373      2.00000
    235       8.5439      2.00000
    236       8.5843      2.00000
    237       8.6029      2.00000
    238       8.6581      2.00000
    239       8.6888      2.00000
    240       8.7390      2.00000
    241       8.7680      2.00000
    242       8.8418      2.00000
    243       8.8794      2.00001
    244       8.9018      2.00003
    245       8.9525      2.00052
    246       8.9855      2.00254
    247       9.0201      2.01017
    248       9.0423      2.02110
    249       9.0571      2.03184
    250       9.1139      2.07063
    251       9.1264      2.06182
    252       9.1650      1.90793
    253       9.1915      1.64428
    254       9.2286      1.08117
    255       9.2701      0.42223
    256       9.2885      0.20629
    257       9.3070      0.05601
    258       9.3333     -0.05011
    259       9.3505     -0.06997
    260       9.4072     -0.03385
    261       9.4314     -0.01700
    262       9.4551     -0.00744
    263       9.4904     -0.00168
    264       9.8403     -0.00000
    265       9.8815     -0.00000
    266      10.0866     -0.00000
    267      10.4658     -0.00000
    268      10.7012     -0.00000
    269      10.7812     -0.00000
    270      10.9641     -0.00000
    271      11.1571     -0.00000
    272      11.3050     -0.00000
    273      11.4326     -0.00000
    274      11.6566     -0.00000
    275      12.0546      0.00000
    276      12.1861      0.00000
    277      12.3800      0.00000
    278      12.4335      0.00000
    279      13.1032      0.00000
    280      13.2277      0.00000
    281      13.3546      0.00000
    282      13.4119      0.00000
    283      15.7431      0.00000
    284      15.9505      0.00000
    285      16.0012      0.00000
    286      16.1618      0.00000
    287      16.2722      0.00000
    288      16.3405      0.00000
    289      16.7993      0.00000
    290      16.8294      0.00000
    291      16.9949      0.00000
    292      17.2372      0.00000
    293      17.3012      0.00000
    294      17.4715      0.00000
    295      17.9956      0.00000
    296      18.5950      0.00000
    297      18.6736      0.00000
    298      18.7461      0.00000
    299      19.0600      0.00000
    300      19.0850      0.00000
    301      19.1877      0.00000
    302      19.4279      0.00000
    303      19.5969      0.00000
    304      19.6295      0.00000
    305      19.7526      0.00000
    306      19.8408      0.00000
    307      19.9651      0.00000

 k-point   2 :       0.5000    0.1250    0.7500
  band No.  band energies     occupation 
      1     -40.9955      2.00000
      2     -40.9672      2.00000
      3     -40.9653      2.00000
      4     -40.8852      2.00000
      5     -40.8815      2.00000
      6     -40.8797      2.00000
      7     -40.8226      2.00000
      8     -40.7961      2.00000
      9     -40.7891      2.00000
     10     -40.7802      2.00000
     11     -40.7717      2.00000
     12     -40.7678      2.00000
     13     -40.7507      2.00000
     14     -40.7181      2.00000
     15     -40.7136      2.00000
     16     -40.7086      2.00000
     17     -40.7019      2.00000
     18     -40.6946      2.00000
     19     -40.6894      2.00000
     20     -40.6813      2.00000
     21     -40.6702      2.00000
     22     -40.6604      2.00000
     23     -40.6555      2.00000
     24     -40.6536      2.00000
     25     -40.6452      2.00000
     26     -40.6375      2.00000
     27     -40.6267      2.00000
     28     -40.6205      2.00000
     29     -40.6186      2.00000
     30     -40.6118      2.00000
     31     -40.6057      2.00000
     32     -40.5918      2.00000
     33     -40.5877      2.00000
     34     -40.5794      2.00000
     35     -40.5767      2.00000
     36     -40.5702      2.00000
     37     -40.5638      2.00000
     38     -40.5602      2.00000
     39     -40.5560      2.00000
     40     -40.5522      2.00000
     41     -40.5466      2.00000
     42     -40.5409      2.00000
     43     -40.5368      2.00000
     44     -40.5350      2.00000
     45     -40.5296      2.00000
     46     -40.5231      2.00000
     47     -40.5195      2.00000
     48     -40.5152      2.00000
     49     -40.5088      2.00000
     50     -40.5068      2.00000
     51     -40.5001      2.00000
     52     -40.4976      2.00000
     53     -40.4942      2.00000
     54     -40.4908      2.00000
     55     -40.4860      2.00000
     56     -40.4835      2.00000
     57     -40.4761      2.00000
     58     -40.4756      2.00000
     59     -40.4698      2.00000
     60     -40.4671      2.00000
     61     -40.4578      2.00000
     62     -40.4528      2.00000
     63     -40.4516      2.00000
     64     -40.4472      2.00000
     65     -40.4462      2.00000
     66     -40.4420      2.00000
     67     -40.4386      2.00000
     68     -40.4352      2.00000
     69     -40.4310      2.00000
     70     -40.4287      2.00000
     71     -40.4252      2.00000
     72     -40.4235      2.00000
     73     -40.4167      2.00000
     74     -40.4151      2.00000
     75     -40.4130      2.00000
     76     -40.4098      2.00000
     77     -40.4059      2.00000
     78     -40.4027      2.00000
     79     -40.3980      2.00000
     80     -40.3941      2.00000
     81     -40.3923      2.00000
     82     -40.3901      2.00000
     83     -40.3828      2.00000
     84     -40.3806      2.00000
     85     -40.3783      2.00000
     86     -40.3728      2.00000
     87     -40.3711      2.00000
     88     -40.3647      2.00000
     89     -40.3606      2.00000
     90     -40.3543      2.00000
     91     -40.3516      2.00000
     92     -40.3479      2.00000
     93     -40.3457      2.00000
     94     -40.2876      2.00000
     95     -40.2838      2.00000
     96     -40.2232      2.00000
     97       3.0458      2.00000
     98       3.1947      2.00000
     99       4.0736      2.00000
    100       4.1834      2.00000
    101       4.2359      2.00000
    102       4.2566      2.00000
    103       4.2750      2.00000
    104       4.3119      2.00000
    105       4.3446      2.00000
    106       4.3581      2.00000
    107       4.3928      2.00000
    108       4.4104      2.00000
    109       4.4238      2.00000
    110       4.4458      2.00000
    111       4.4778      2.00000
    112       4.5150      2.00000
    113       4.5258      2.00000
    114       4.5934      2.00000
    115       4.6082      2.00000
    116       4.6461      2.00000
    117       4.6738      2.00000
    118       4.6863      2.00000
    119       4.7296      2.00000
    120       4.7691      2.00000
    121       4.7879      2.00000
    122       4.8107      2.00000
    123       4.8608      2.00000
    124       4.8760      2.00000
    125       4.9177      2.00000
    126       4.9532      2.00000
    127       5.0088      2.00000
    128       5.0240      2.00000
    129       5.0498      2.00000
    130       5.0886      2.00000
    131       5.1440      2.00000
    132       5.1703      2.00000
    133       5.2478      2.00000
    134       5.2707      2.00000
    135       5.3391      2.00000
    136       5.3741      2.00000
    137       5.3986      2.00000
    138       5.4503      2.00000
    139       5.4960      2.00000
    140       5.5373      2.00000
    141       5.5607      2.00000
    142       5.6072      2.00000
    143       5.6302      2.00000
    144       5.6681      2.00000
    145       5.6891      2.00000
    146       5.7227      2.00000
    147       5.7494      2.00000
    148       5.7928      2.00000
    149       5.8591      2.00000
    150       5.9240      2.00000
    151       5.9655      2.00000
    152       5.9876      2.00000
    153       5.9993      2.00000
    154       6.0474      2.00000
    155       6.0729      2.00000
    156       6.1033      2.00000
    157       6.1450      2.00000
    158       6.1999      2.00000
    159       6.2301      2.00000
    160       6.2634      2.00000
    161       6.2884      2.00000
    162       6.3419      2.00000
    163       6.3782      2.00000
    164       6.3963      2.00000
    165       6.4160      2.00000
    166       6.4342      2.00000
    167       6.4580      2.00000
    168       6.4960      2.00000
    169       6.5185      2.00000
    170       6.5586      2.00000
    171       6.5838      2.00000
    172       6.6392      2.00000
    173       6.6544      2.00000
    174       6.6742      2.00000
    175       6.6965      2.00000
    176       6.7256      2.00000
    177       6.7630      2.00000
    178       6.7835      2.00000
    179       6.8140      2.00000
    180       6.8361      2.00000
    181       6.8582      2.00000
    182       6.8830      2.00000
    183       6.9015      2.00000
    184       6.9332      2.00000
    185       6.9769      2.00000
    186       7.0102      2.00000
    187       7.0323      2.00000
    188       7.0583      2.00000
    189       7.0947      2.00000
    190       7.1177      2.00000
    191       7.1428      2.00000
    192       7.1626      2.00000
    193       7.2028      2.00000
    194       7.2289      2.00000
    195       7.2636      2.00000
    196       7.2961      2.00000
    197       7.3214      2.00000
    198       7.3403      2.00000
    199       7.3700      2.00000
    200       7.3872      2.00000
    201       7.4173      2.00000
    202       7.4856      2.00000
    203       7.5383      2.00000
    204       7.5554      2.00000
    205       7.5821      2.00000
    206       7.6299      2.00000
    207       7.6397      2.00000
    208       7.6871      2.00000
    209       7.7016      2.00000
    210       7.7454      2.00000
    211       7.7625      2.00000
    212       7.7943      2.00000
    213       7.8317      2.00000
    214       7.8440      2.00000
    215       7.9548      2.00000
    216       7.9796      2.00000
    217       8.0171      2.00000
    218       8.0563      2.00000
    219       8.0739      2.00000
    220       8.1100      2.00000
    221       8.1241      2.00000
    222       8.1458      2.00000
    223       8.1737      2.00000
    224       8.2323      2.00000
    225       8.2417      2.00000
    226       8.2920      2.00000
    227       8.4770      2.00000
    228       8.5285      2.00000
    229       8.5542      2.00000
    230       8.5659      2.00000
    231       8.5851      2.00000
    232       8.6241      2.00000
    233       8.6457      2.00000
    234       8.6596      2.00000
    235       8.6734      2.00000
    236       8.6864      2.00000
    237       8.7293      2.00000
    238       8.7482      2.00000
    239       8.7667      2.00000
    240       8.7921      2.00000
    241       8.8705      2.00000
    242       8.8921      2.00002
    243       8.9160      2.00007
    244       8.9271      2.00013
    245       8.9455      2.00036
    246       8.9636      2.00092
    247       8.9828      2.00226
    248       8.9972      2.00420
    249       9.0229      2.01122
    250       9.0417      2.02071
    251       9.0600      2.03417
    252       9.0717      2.04457
    253       9.0801      2.05237
    254       9.1044      2.06971
    255       9.1498      1.99708
    256       9.1646      1.91094
    257       9.1721      1.85079
    258       9.1903      1.65951
    259       9.2990      0.11275
    260       9.3288     -0.03951
    261       9.3616     -0.06998
    262       9.3964     -0.04336
    263       9.5696     -0.00002
    264       9.6059     -0.00000
    265       9.9064     -0.00000
    266       9.9412     -0.00000
    267      10.4991     -0.00000
    268      10.5646     -0.00000
    269      10.8286     -0.00000
    270      10.8682     -0.00000
    271      10.9172     -0.00000
    272      10.9996     -0.00000
    273      12.1045      0.00000
    274      12.1529      0.00000
    275      12.9688      0.00000
    276      12.9844      0.00000
    277      13.2111      0.00000
    278      13.2521      0.00000
    279      13.7235      0.00000
    280      13.8336      0.00000
    281      13.9088      0.00000
    282      13.9511      0.00000
    283      14.7308      0.00000
    284      14.8733      0.00000
    285      15.0107      0.00000
    286      15.0401      0.00000
    287      15.6622      0.00000
    288      15.7127      0.00000
    289      16.4898      0.00000
    290      16.5071      0.00000
    291      16.9182      0.00000
    292      16.9473      0.00000
    293      17.0899      0.00000
    294      17.1545      0.00000
    295      17.2018      0.00000
    296      17.3340      0.00000
    297      17.8407      0.00000
    298      18.0080      0.00000
    299      18.3820      0.00000
    300      18.5391      0.00000
    301      18.9104      0.00000
    302      19.0175      0.00000
    303      19.5846      0.00000
    304      19.7115      0.00000
    305      19.7570      0.00000
    306      19.7990      0.00000
    307      20.0128      0.00000

 k-point   3 :       0.7500    0.1250    0.5833
  band No.  band energies     occupation 
      1     -40.9955      2.00000
      2     -40.9674      2.00000
      3     -40.9652      2.00000
      4     -40.8853      2.00000
      5     -40.8817      2.00000
      6     -40.8803      2.00000
      7     -40.8227      2.00000
      8     -40.7962      2.00000
      9     -40.7880      2.00000
     10     -40.7799      2.00000
     11     -40.7731      2.00000
     12     -40.7617      2.00000
     13     -40.7543      2.00000
     14     -40.7187      2.00000
     15     -40.7146      2.00000
     16     -40.7090      2.00000
     17     -40.7021      2.00000
     18     -40.6961      2.00000
     19     -40.6864      2.00000
     20     -40.6819      2.00000
     21     -40.6690      2.00000
     22     -40.6612      2.00000
     23     -40.6588      2.00000
     24     -40.6523      2.00000
     25     -40.6422      2.00000
     26     -40.6383      2.00000
     27     -40.6269      2.00000
     28     -40.6210      2.00000
     29     -40.6163      2.00000
     30     -40.6134      2.00000
     31     -40.6025      2.00000
     32     -40.5911      2.00000
     33     -40.5875      2.00000
     34     -40.5808      2.00000
     35     -40.5750      2.00000
     36     -40.5716      2.00000
     37     -40.5658      2.00000
     38     -40.5603      2.00000
     39     -40.5557      2.00000
     40     -40.5533      2.00000
     41     -40.5460      2.00000
     42     -40.5421      2.00000
     43     -40.5386      2.00000
     44     -40.5336      2.00000
     45     -40.5294      2.00000
     46     -40.5240      2.00000
     47     -40.5192      2.00000
     48     -40.5147      2.00000
     49     -40.5116      2.00000
     50     -40.5058      2.00000
     51     -40.5013      2.00000
     52     -40.4993      2.00000
     53     -40.4922      2.00000
     54     -40.4868      2.00000
     55     -40.4842      2.00000
     56     -40.4827      2.00000
     57     -40.4784      2.00000
     58     -40.4736      2.00000
     59     -40.4698      2.00000
     60     -40.4679      2.00000
     61     -40.4586      2.00000
     62     -40.4546      2.00000
     63     -40.4509      2.00000
     64     -40.4475      2.00000
     65     -40.4468      2.00000
     66     -40.4419      2.00000
     67     -40.4394      2.00000
[...]
         0         1         2         3         4         5         6         7         8         9
x   266.6646    0.0000   -1.5984   -2.6964   -0.0018   -3.8199    1.9412   -3.2865   42.6714    4.0193
x    -0.4835   -0.8166    0.0031    0.1018   -0.3773    0.6126   -7.1299   -1.4221    0.3226    0.5764
x     0.0026    0.4373   -0.1567    0.2665   -0.8229   -0.2735    0.0303    0.0561    0.0004    0.0260
x    -0.0054    0.0093   -0.0097   -0.0052    0.0003    0.0005    0.0000    0.0002   -0.0000    0.0000
x    -0.0000   -0.0000    0.0000    0.0000   -0.0000   -0.0000   -0.0000    0.0000    0.0000    0.0000
y   266.6646    0.0000   -2.6972   -1.5999    0.0021   -3.8203    3.2860   -1.9416   42.6895   -4.0210
y    -0.8149   -0.4842   -0.0005    0.0988   -0.6127    0.3770   -7.1415    1.4247    0.5776    0.3230
y    -0.0015    0.4365   -0.2666    0.1567   -0.8237    0.2739    0.0561    0.0303   -0.0003    0.0258
y    -0.0093    0.0054   -0.0097    0.0052    0.0005    0.0002   -0.0000    0.0002   -0.0000    0.0000
y    -0.0000    0.0000    0.0000    0.0000   -0.0000    0.0000   -0.0000    0.0000    0.0000    0.0000
z   266.6646    0.0000   -2.6964   -1.6008    0.0026   -3.8207    3.2882   -1.9421   42.7691   -4.0285
z    -0.8197   -0.4865   -0.0008    0.0961   -0.6097    0.3755   -7.0976    1.4159    0.5736    0.3212
z    -0.0011    0.4345   -0.2655    0.1561   -0.8158    0.2713    0.0554    0.0300   -0.0002    0.0255
z    -0.0092    0.0053   -0.0094    0.0051    0.0005    0.0002   -0.0000    0.0002   -0.0000    0.0000
z    -0.0000    0.0000    0.0000    0.0000    0.0000    0.0000    0.0000    0.0000    0.0000    0.0000
 total charge-density along one line
x   512.0001    0.0000   -3.1887   -5.3722   -0.0013   -8.7463    5.6992   -9.6394  191.8074   18.0270
x    -4.2859   -7.3096    0.0006   -5.2615    1.8681   -3.3019   19.6199    3.8960   -0.5230   -0.8943
x     0.0014   -0.1348   -0.1373    0.1751   -1.1209   -0.3713    0.0475    0.0936    0.0012    0.0492
x    -0.0020   -0.0133    0.1728    0.0930   -0.0173   -0.0344   -0.0002   -0.0113   -0.0019    0.0061
x    -0.0307   -0.0288    0.0043    0.0094    0.0001    0.0024    0.0007   -0.0032    0.0047    0.0113
x    -0.0011   -0.0029   -0.0000   -0.0003   -0.0000    0.0016    0.0009   -0.0049    0.0002    0.0008
x    -0.0000   -0.0001   -0.0003   -0.0008   -0.0017    0.0021    0.0000   -0.0002    0.0000    0.0001
x     0.0005    0.0003    0.0013   -0.0009    0.0000   -0.0000   -0.0000    0.0000   -0.0005   -0.0001
x    -0.0008    0.0004   -0.0001   -0.0000    0.0000   -0.0001    0.0004   -0.0000    0.0005   -0.0001
x     0.0002    0.0000   -0.0000    0.0001   -0.0003    0.0001   -0.0004    0.0000
y   512.0001    0.0000   -5.3728   -3.1882    0.0022   -8.7467    9.6380   -5.6998  191.8038  -18.0265
y    -7.3068   -4.2859    0.0054   -5.2641    3.2985   -1.8676   19.5754   -3.8864   -0.8895   -0.5215
y     0.0026   -0.1356   -0.1779    0.1381   -1.1342    0.3765    0.0952    0.0479   -0.0004    0.0486
y     0.0129    0.0022    0.1721   -0.0925   -0.0344   -0.0173    0.0002   -0.0113   -0.0060    0.0019
y    -0.0307    0.0287    0.0094    0.0043   -0.0001    0.0024    0.0032   -0.0007    0.0047   -0.0113
y    -0.0029   -0.0011    0.0000   -0.0003   -0.0016    0.0000    0.0009    0.0049    0.0008    0.0002
y     0.0000   -0.0001    0.0008    0.0003   -0.0017   -0.0021   -0.0002    0.0000   -0.0000    0.0001
y    -0.0003   -0.0005    0.0013    0.0009   -0.0000    0.0000    0.0000    0.0000    0.0001    0.0005
y    -0.0008   -0.0004   -0.0000   -0.0001   -0.0000   -0.0001    0.0000   -0.0004    0.0005    0.0002
y     0.0000    0.0002    0.0000    0.0001   -0.0001    0.0003   -0.0004    0.0000
z   512.0001    0.0000   -5.3726   -3.1889    0.0024   -8.7474    9.6413   -5.7006  191.8935  -18.0351
z    -7.3119   -4.2893    0.0040   -5.2680    3.3042   -1.8698   19.6558   -3.9028   -0.8976   -0.5258
z     0.0027   -0.1409   -0.1730    0.1359   -1.0977    0.3643    0.0907    0.0458   -0.0001    0.0462
z     0.0144    0.0016    0.1760   -0.0945   -0.0347   -0.0175    0.0002   -0.0113   -0.0061    0.0020
z    -0.0310    0.0290    0.0095    0.0043   -0.0001    0.0024    0.0032   -0.0007    0.0047   -0.0114
z    -0.0029   -0.0011    0.0000   -0.0003   -0.0016    0.0000    0.0009    0.0049    0.0008    0.0002
z     0.0000   -0.0001    0.0008    0.0003   -0.0017   -0.0022   -0.0002    0.0000   -0.0000    0.0001
z    -0.0003   -0.0005    0.0013    0.0009   -0.0000    0.0000    0.0000    0.0000    0.0001    0.0005
z    -0.0008   -0.0004   -0.0000   -0.0001   -0.0000   -0.0001    0.0000   -0.0004    0.0005    0.0002
z     0.0000    0.0002    0.0000    0.0001   -0.0001    0.0003   -0.0004    0.0000
 
 pseudopotential strength for first ion, spin component:           1
-37.292  -0.001   0.010   8.282   0.000  -0.005   0.005  -0.004
 -0.001 -37.294   0.012   0.000   8.283  -0.006  -0.001  -0.003
  0.010   0.012 -37.316  -0.005  -0.006   8.294  -0.003  -0.001
  8.282   0.000  -0.005   7.864  -0.000   0.001  -0.002   0.002
  0.000   8.283  -0.006  -0.000   7.864   0.001   0.000   0.002
 -0.005  -0.006   8.294   0.001   0.001   7.861   0.002   0.000
  0.005  -0.001  -0.003  -0.002   0.000   0.002  -2.352   0.003
 -0.004  -0.003  -0.001   0.002   0.002   0.000   0.003  -2.331
  0.001  -0.001  -0.002  -0.001   0.001   0.001  -0.011  -0.001
 -0.001   0.005  -0.004   0.000  -0.002   0.002   0.002   0.002
  0.001  -0.000   0.004  -0.001   0.000  -0.002  -0.001   0.002
  0.005  -0.001  -0.004  -0.003   0.000   0.002  -2.008   0.003
 -0.004  -0.004  -0.001   0.002   0.002   0.000   0.003  -1.985
  0.001  -0.001  -0.002  -0.001   0.002   0.001  -0.012  -0.001
 -0.001   0.005  -0.004   0.000  -0.003   0.002   0.002   0.003
  0.001  -0.000   0.004  -0.001   0.000  -0.002  -0.001   0.002
  0.003   0.003  -0.005   0.001   0.001  -0.001  -0.003  -0.000
  0.007   0.007  -0.010   0.002   0.001  -0.003  -0.006  -0.000
 total augmentation occupancy for first ion, spin component:           1
  1.997  -0.000  -0.000  -0.013   0.000  -0.000  -0.003   0.002  -0.001   0.000  -0.001   0.003  -0.002   0.001  -0.000   0.001
 -0.000   1.997  -0.000   0.000  -0.013  -0.000   0.000   0.002   0.002  -0.003   0.000  -0.000  -0.002  -0.002   0.003  -0.000
 -0.000  -0.000   1.997  -0.000  -0.000  -0.013   0.002   0.000   0.001   0.002  -0.002  -0.002  -0.000  -0.001  -0.002   0.002
 -0.013   0.000  -0.000   0.104  -0.002  -0.003  -0.030   0.035  -0.006   0.004  -0.016   0.023  -0.025   0.006  -0.002   0.013
  0.000  -0.013  -0.000  -0.002   0.103  -0.003   0.004   0.035   0.017  -0.030  -0.002  -0.002  -0.025  -0.015   0.022   0.002
 -0.000  -0.000  -0.013  -0.003  -0.003   0.110   0.029   0.004   0.015   0.030  -0.026  -0.021  -0.003  -0.013  -0.021   0.022
 -0.003   0.000   0.002  -0.030   0.004   0.029   2.774  -0.002   0.041  -0.024   0.007  -0.757   0.002  -0.035   0.020  -0.005
  0.002   0.002   0.000   0.035   0.035   0.004  -0.002   2.660  -0.005  -0.002   0.008   0.002  -0.669   0.003   0.002  -0.006
 -0.001   0.002   0.001  -0.006   0.017   0.015   0.041  -0.005   2.517  -0.026   0.004  -0.035   0.003  -0.545   0.022  -0.001
  0.000  -0.003   0.002   0.004  -0.030   0.030  -0.024  -0.002  -0.026   2.773  -0.032   0.020   0.003   0.022  -0.757   0.028
 -0.001   0.000  -0.002  -0.016  -0.002  -0.026   0.007   0.008   0.004  -0.032   2.512  -0.005  -0.006  -0.001   0.027  -0.545
  0.003  -0.000  -0.002   0.023  -0.002  -0.021  -0.757   0.002  -0.035   0.020  -0.005   0.480  -0.013   0.011  -0.006   0.001
 -0.002  -0.002  -0.000  -0.025  -0.025  -0.003   0.002  -0.669   0.003   0.003  -0.006  -0.013   0.454  -0.006  -0.013   0.011
  0.001  -0.002  -0.001   0.006  -0.015  -0.013  -0.035   0.003  -0.545   0.022  -0.001   0.011  -0.006   0.436  -0.006  -0.010
 -0.000   0.003  -0.002  -0.002   0.022  -0.021   0.020   0.002   0.022  -0.757   0.027  -0.006  -0.013  -0.006   0.475  -0.008
  0.001  -0.000   0.002   0.013   0.002   0.022  -0.005  -0.006  -0.001   0.028  -0.545   0.001   0.011  -0.010  -0.008   0.446
 -0.002  -0.002   0.004   0.031   0.031  -0.033  -0.023  -0.020  -0.017  -0.022   0.026   0.027   0.022   0.018   0.027  -0.034
  0.001   0.001  -0.002  -0.002  -0.002   0.002  -0.003   0.002  -0.001  -0.003   0.003  -0.001  -0.002  -0.001  -0.001   0.002


------------------------ aborting loop because EDIFF is reached ----------------------------------------


    CHARGE:  cpu time   46.66: real time   46.66
    FORLOC:  cpu time    0.13: real time    0.13
    FORNL :  cpu time  233.78: real time  233.82
    STRESS:  cpu time  686.38: real time  686.44
    FORCOR:  cpu time    1.02: real time    1.02
    FORHAR:  cpu time    0.33: real time    0.33
    MIXING:  cpu time    0.03: real time    0.03

  FORCE on cell =-STRESS in cart. coord.  units (eV):
  Direction    XX          YY          ZZ          XY          YZ          ZX
  --------------------------------------------------------------------------------------
  Alpha Z  4309.77481  4309.77481  4309.77481
  Ewald  -22843.04116-22843.04116-22843.04116    58.22227   -58.22227    58.22227
  Hartree  5882.16669  5882.58082  5879.74846    71.58380   -70.32712    71.80837
  E(xc)   -2904.32329 -2904.34110 -2904.38196    -0.03744     0.04570    -0.03554
  Local    5492.44367  5490.97163  5498.49763  -137.10567   133.90748  -137.67666
  n-local  -894.33442  -895.84759  -897.83979    -2.35653     2.79035    -2.32687
  augment  3880.16709  3881.61110  3880.25347     3.62716    -2.83701     3.79607
  Kinetic  7092.51482  7093.75490  7091.69756     3.47916    -2.32987     3.67342
  Fock        0.00000     0.00000     0.00000     0.00000     0.00000     0.00000
  -------------------------------------------------------------------------------------
  Total      15.36821    15.46342    14.70903    -2.58726     3.02725    -2.53894
  in kB      50.82309    51.13795    48.64317    -8.55613    10.01121    -8.39636
  external pressure =       50.20 kB  Pullay stress =        0.00 kB


 VOLUME and BASIS-vectors are now :
 -----------------------------------------------------------------------------
  energy-cutoff  :      300.00
  volume of cell :      484.48
      direct lattice vectors                 reciprocal lattice vectors
     7.854000000 -0.000000000 -0.000000000     0.127323657  0.000000000 -0.000000000
    -0.000000000  7.854000000  0.000000000     0.000000000  0.127323657 -0.000000000
     0.000000000  0.000000000  7.854000000     0.000000000 -0.000000000  0.127323657

  length of vectors
     7.854000000  7.854000000  7.854000000     0.127323657  0.127323657  0.127323657


 FORCES acting on ions
    electron-ion (+dipol)            ewald-force                    non-local-force                 convergence-correction
 -----------------------------------------------------------------------------------------------
   -.988E+02 0.121E+03 0.121E+03   0.994E+02 -.121E+03 -.121E+03   0.516E+00 -.653E+00 -.660E+00   0.397E-01 -.123E-01 0.378E-01
   0.168E+03 0.424E+02 0.424E+02   -.169E+03 -.427E+02 -.427E+02   -.140E+00 0.123E+00 0.126E+00   0.393E-01 0.146E-01 -.207E-01
   0.241E+03 -.159E+03 -.159E+03   -.242E+03 0.160E+03 0.160E+03   -.574E+00 0.615E+00 0.628E+00   0.562E-02 0.266E-01 -.179E-01
   0.500E+02 -.500E+02 -.501E+02   -.498E+02 0.498E+02 0.498E+02   -.505E+00 0.506E+00 0.507E+00   0.637E-02 -.446E-01 -.181E-02
   -.732E+02 0.830E+02 0.102E+03   0.736E+02 -.831E+02 -.102E+03   0.306E+00 -.429E+00 -.480E+00   -.624E-01 0.813E-02 -.558E-02
   -.260E+02 0.134E+03 0.261E+02   0.264E+02 -.135E+03 -.264E+02   0.253E+00 0.111E+00 -.255E+00   -.446E-01 0.268E-01 -.504E-01
   0.159E+03 -.159E+03 -.241E+03   -.160E+03 0.160E+03 0.242E+03   -.646E+00 0.612E+00 0.567E+00   -.589E-01 0.281E-01 0.191E-01
   -.130E+01 -.996E+02 0.180E+03   0.144E+01 0.100E+03 -.181E+03   0.307E+00 -.179E+00 -.244E+00   -.716E-01 -.291E-01 0.913E-02
   -.102E+03 0.830E+02 0.733E+02   0.102E+03 -.831E+02 -.736E+02   0.485E+00 -.437E+00 -.306E+00   -.222E-01 -.208E-01 -.405E-01
   -.424E+02 0.424E+02 -.168E+03   0.427E+02 -.427E+02 0.169E+03   -.126E+00 0.134E+00 0.150E+00   -.270E-01 0.501E-01 -.189E-02
   -.102E+03 0.732E+02 0.830E+02   0.102E+03 -.736E+02 -.831E+02   0.478E+00 -.307E+00 -.442E+00   -.317E-01 0.982E-04 0.656E-02
   -.424E+02 -.168E+03 0.424E+02   0.427E+02 0.169E+03 -.427E+02   -.130E+00 0.152E+00 0.124E+00   -.208E-01 -.227E-01 0.170E-01
   -.121E+03 0.121E+03 0.988E+02   0.121E+03 -.121E+03 -.994E+02   0.643E+00 -.639E+00 -.514E+00   0.688E-01 -.392E-01 -.154E-01
   0.732E+02 -.155E+03 -.733E+02   -.734E+02 0.156E+03 0.734E+02   -.520E+00 0.750E+00 0.506E+00   0.800E-01 0.393E-01 0.292E-01
   -.830E+02 0.732E+02 0.102E+03   0.831E+02 -.736E+02 -.102E+03   0.437E+00 -.297E+00 -.484E+00   0.608E-01 0.873E-02 -.100E-02
   -.180E+03 -.996E+02 0.138E+01   0.181E+03 0.100E+03 -.144E+01   0.251E+00 -.165E+00 -.298E+00   0.612E-01 -.178E-01 -.782E-02
   -.732E+02 0.102E+03 0.829E+02   0.736E+02 -.102E+03 -.831E+02   0.302E+00 -.473E+00 -.442E+00   -.649E-01 0.344E-01 0.451E-01
   -.260E+02 0.260E+02 0.134E+03   0.264E+02 -.264E+02 -.135E+03   0.262E+00 -.255E+00 0.116E+00   -.598E-01 -.106E-01 -.120E-01
   0.159E+03 -.241E+03 -.159E+03   -.160E+03 0.242E+03 0.160E+03   -.633E+00 0.569E+00 0.643E+00   -.577E-01 -.140E-01 -.138E-01
   -.131E+01 0.180E+03 -.996E+02   0.144E+01 -.181E+03 0.100E+03   0.299E+00 -.246E+00 -.187E+00   -.567E-01 -.307E-01 0.909E-02
   -.174E+03 0.174E+03 0.174E+03   0.174E+03 -.174E+03 -.174E+03   0.644E+00 -.655E+00 -.648E+00   -.453E-01 0.224E-01 0.277E-03
   -.134E+03 0.260E+02 0.260E+02   0.135E+03 -.264E+02 -.264E+02   -.111E+00 -.263E+00 -.266E+00   -.182E-01 0.176E-01 -.111E-01
   0.802E+02 -.153E+03 -.153E+03   -.807E+02 0.154E+03 0.154E+03   -.801E+00 0.658E+00 0.665E+00   -.306E-02 -.393E-01 -.134E-01
   0.155E+03 -.732E+02 -.733E+02   -.156E+03 0.734E+02 0.734E+02   -.753E+00 0.507E+00 0.518E+00   -.267E-01 -.154E-01 0.278E-01
   -.830E+02 0.102E+03 0.733E+02   0.831E+02 -.102E+03 -.736E+02   0.440E+00 -.477E+00 -.296E+00   0.473E-01 0.295E-01 -.333E-01
   -.180E+03 0.134E+01 -.996E+02   0.181E+03 -.144E+01 0.100E+03   0.245E+00 -.304E+00 -.185E+00   0.632E-01 0.343E-01 0.118E-01
   -.121E+03 0.988E+02 0.121E+03   0.121E+03 -.994E+02 -.121E+03   0.651E+00 -.500E+00 -.641E+00   0.811E-01 -.455E-01 0.254E-02
   0.732E+02 -.732E+02 -.155E+03   -.734E+02 0.734E+02 0.156E+03   -.527E+00 0.504E+00 0.752E+00   0.778E-01 -.158E-01 0.107E-01
   0.153E+03 -.802E+02 -.153E+03   -.154E+03 0.807E+02 0.154E+03   -.656E+00 0.817E+00 0.667E+00   0.147E-01 0.422E-01 0.204E-01
   0.996E+02 0.136E+01 0.180E+03   -.100E+03 -.144E+01 -.181E+03   0.196E+00 -.315E+00 -.247E+00   0.193E-01 0.654E-02 0.671E-02
   0.153E+03 -.153E+03 -.802E+02   -.154E+03 0.154E+03 0.807E+02   -.658E+00 0.654E+00 0.806E+00   0.136E-01 -.120E-01 -.355E-02
   0.996E+02 0.180E+03 0.141E+01   -.100E+03 -.181E+03 -.144E+01   0.190E+00 -.257E+00 -.308E+00   0.105E-01 -.347E-01 -.458E-01
 -----------------------------------------------------------------------------------------------
   -.132E+00 0.143E+00 0.166E+00   -.711E-12 0.227E-12 0.222E-15   0.123E+00 -.137E+00 -.132E+00   0.177E-01 -.151E-01 -.426E-01
 
 
 POSITION                                       TOTAL-FORCE (eV/Angst)
 -----------------------------------------------------------------------------------
      7.74721      0.10679      0.10679         1.142782     -0.826139     -0.820743
      7.80728      2.01022      2.01022        -0.680818     -0.109042     -0.115573
      0.09552      3.83148      3.83148        -1.480152      1.127375      1.129940
      0.06975      5.82075      5.82075        -0.296921      0.290449      0.291148
      1.85671      0.10679      2.07029         0.639341     -0.559992     -0.572166
      1.91678      2.01022      3.97372         0.622027     -0.759759     -0.628924
      2.05902      3.83148      5.79498        -1.134465      1.134639      1.469604
      1.91678      5.93722      0.04672         0.379238      0.309980     -0.861344
      3.82021      0.10679      4.03379         0.574174     -0.578393     -0.632336
      3.88028      2.01022      5.93722         0.105564     -0.093807      0.678081
      3.82021      4.03379      0.10679         0.573627     -0.642196     -0.560896
      3.88028      5.93722      2.01022         0.108172      0.693328     -0.108223
      5.78371      0.10679      5.99729         0.825836     -0.836501     -1.146237
      5.91148      1.94252      7.83302        -0.611932      1.276673      0.621147
      5.78371      4.03379      2.07029         0.548582     -0.641594     -0.574569
      5.84378      5.93722      3.97372         0.864346      0.322288     -0.369555
      1.85671      2.07029      0.10679         0.634020     -0.567625     -0.548325
      1.91678      3.97372      2.01022         0.627270     -0.633097     -0.749689
      2.05902      5.79498      3.83148        -1.134502      1.495905      1.142061
      1.91678      0.04672      5.93722         0.378832     -0.876106      0.304001
      3.82021      2.07029      2.07029         0.681459     -0.688165     -0.686206
      3.88028      3.97372      3.97372         0.770899     -0.632613     -0.624868
      4.02252      5.79498      5.79498        -1.295793      1.312419      1.300989
      3.94798      7.83302      7.83302        -1.275316      0.607764      0.605240
      5.78371      2.07029      4.03379         0.552035     -0.572095     -0.635038
      5.84378      3.97372      5.93722         0.862397     -0.377897      0.301885
      5.78371      5.99729      0.10679         0.819128     -1.141318     -0.825610
      5.91148      7.83302      1.94252        -0.611390      0.611835      1.272020
      0.09552      1.86798      5.79498        -1.288523      1.313142      1.303138
      7.80728      3.97372      0.04672        -0.301405     -0.389916     -0.860401
      0.09552      5.79498      1.86798        -1.292549      1.310542      1.291099
      7.80728      0.04672      3.97372        -0.305963     -0.880084     -0.389651
 -----------------------------------------------------------------------------------
    total drift:                                0.008482     -0.008716     -0.008585


--------------------------------------------------------------------------------------------------------



  FREE ENERGIE OF THE ION-ELECTRON SYSTEM (eV)
  ---------------------------------------------------
  free  energy   TOTEN  =      -164.18155833 eV

  energy  without entropy=     -164.17802468  energy(sigma->0) =     -164.18038045
 


--------------------------------------------------------------------------------------------------------


    POTLOK:  cpu time    1.07: real time    1.08


--------------------------------------------------------------------------------------------------------


     LOOP+:  cpu time13705.38: real time13707.34
    4ORBIT:  cpu time    0.00: real time    0.00

 total amount of memory used by VASP on root node   849901. kBytes
========================================================================

   base      :      30000. kBytes
   nonlr-proj:      27543. kBytes
   grid      :      47517. kBytes
   one-center:        497. kBytes
   wavefun   :     744344. kBytes
 
  
  
 General timing and accounting informations for this job:
 ========================================================
  
                  Total CPU time used (sec):    13807.468
                            User time (sec):    13805.448
                          System time (sec):        2.020
                         Elapsed time (sec):    13809.915
  
                   Maximum memory used (kb):     2313148.
                   Average memory used (kb):           0.
  
                          Minor page faults:       900017
                          Major page faults:            9
                 Voluntary context switches:          343
