 vasp.5.3.3 18Dez12 (build Jun 21 2016 14:15:03) complex                        
  
 executed on             LinuxIFC date 2017.10.19  13:24:50
 serial version


--------------------------------------------------------------------------------------------------------


 INCAR:
 POTCAR:    PAW_PBE Pd_pv 28Jan2005               
 POTCAR:    PAW_PBE Pd_pv 28Jan2005               
   VRHFIN =Pd: 4p5s4d                                                           
   LEXCH  = PE                                                                  
   EATOM  =  2621.5550 eV,  192.6789 Ry                                         
                                                                                
   TITEL  = PAW_PBE Pd_pv 28Jan2005                                             
   LULTRA =        F    use ultrasoft PP ?                                      
   IUNSCR =        1    unscreen: 0-lin 1-nonlin 2-no                           
   RPACOR =    2.250    partial core radius                                     
   POMASS =  106.420; ZVAL   =   16.000    mass and valenz                      
   RCORE  =    2.400    outmost cutoff radius                                   
   RWIGS  =    2.300; RWIGS  =    1.217    wigner-seitz radius (au A)           
   ENMAX  =  250.925; ENMIN  =  188.194 eV                                      
   ICORE  =        3    local potential                                         
   LCOR   =        T    correct aug charges                                     
   LPAW   =        T    paw PP                                                  
   EAUG   =  473.067                                                            
   DEXC   =    0.000                                                            
   RMAX   =    2.449    core radius for proj-oper                               
   RAUG   =    1.300    factor for augmentation sphere                          
   RDEP   =    2.405    radius for radial grids                                 
   RDEPT  =    1.966    core radius for aug-charge                              
                                                                                
   Atomic configuration                                                         
   11 entries                                                                   
     n  l   j            E        occ.                                          
     1  0  0.50    -24164.6632   2.0000                                         
     2  0  0.50     -3530.9218   2.0000                                         
     2  1  1.50     -3165.6822   6.0000                                         
     3  0  0.50      -639.4578   2.0000                                         
     3  1  1.50      -519.4532   6.0000                                         
     3  2  2.50      -328.9758  10.0000                                         
     4  0  0.50       -88.7014   2.0000                                         
     4  1  1.50       -54.4541   6.0000                                         
     4  2  2.50        -6.6878   9.0000                                         
     5  0  0.50        -4.3543   1.0000                                         
     4  3  2.50        -1.3606   0.0000                                         
   Description                                                                  
     l       E           TYP  RCUT    TYP  RCUT                                 
     1    -54.4540524     23  2.100                                             
     1      4.0817478     23  2.100                                             
     2     -6.6878326     23  2.400                                             
     2     -4.0817478     23  2.400                                             
     0     -4.3542962     23  2.400                                             
     0     13.6058260     23  2.400                                             
     3     -5.4423304     23  2.400                                             
  local pseudopotential read in
  partial core-charges read in
  partial kinetic energy density read in
  atomic valenz-charges read in
  non local Contribution for L=           1  read in
    real space projection operators read in
  non local Contribution for L=           1  read in
    real space projection operators read in
  non local Contribution for L=           2  read in
    real space projection operators read in
  non local Contribution for L=           2  read in
    real space projection operators read in
  non local Contribution for L=           0  read in
    real space projection operators read in
  non local Contribution for L=           0  read in
    real space projection operators read in
    PAW grid and wavefunctions read in
 
   number of l-projection  operators is LMAX  =           6
   number of lm-projection operators is LMMAX =          18
 
 Optimization of the real space projectors (new method)

 maximal supplied QI-value         = 15.68
 optimisation between [QCUT,QGAM] = [  8.78, 17.72] = [ 21.60, 87.97] Ry 
 Optimized for a Real-space Cutoff    1.74 Angstroem

   l    n(q)    QCUT    max X(q) W(low)/X(q) W(high)/X(q)  e(spline) 
   1      9     8.783     3.357    0.98E-04    0.76E-04    0.17E-06
   1      9     8.783     4.938    0.21E-03    0.13E-03    0.38E-06
   2      8     8.783    23.508    0.21E-03    0.23E-03    0.36E-06
   2      8     8.783    23.349    0.20E-03    0.22E-03    0.34E-06
   0      9     8.783    49.920    0.63E-04    0.36E-04    0.14E-06
   0      9     8.783    23.997    0.53E-04    0.34E-04    0.12E-06
  PAW_PBE Pd_pv 28Jan2005               :
 energy of atom  1       EATOM=-2621.5550
 kinetic energy error for atom=    0.0975 (will be added to EATOM!!)
 
 
 POSCAR: Pd                                      
  positions in cartesian coordinates
  No initial velocities read in
 exchange correlation table for  LEXCH =        8
   RHO(1)=    0.500       N(1)  =     2000
   RHO(2)=  100.500       N(2)  =     4000
 


--------------------------------------------------------------------------------------------------------


 ion  position               nearest neighbor table
   1  0.014  0.014  0.000-  20 2.64  29 2.65   2 2.72   5 2.75  27 2.78  17 2.78   8 2.78  14 2.78
                            28 2.78  31 2.88   4 2.89
   2  0.002  0.252  0.250-  28 2.67   3 2.70   6 2.71   1 2.72  14 2.73  18 2.78   5 2.78  15 2.78
                            25 2.81  30 2.83  17 2.84  32 2.85
   3  0.987  0.487  0.500-  15 2.67  25 2.68   2 2.70  29 2.76  19 2.78  16 2.78   6 2.78  26 2.78
                             7 2.79   4 2.82  31 2.83  18 2.87
   4  0.994  0.744  0.750-  27 2.68  30 2.68  20 2.69  19 2.74  32 2.76   7 2.78  13 2.78  16 2.80
                             3 2.82  26 2.86   8 2.88   1 2.89
   5  0.258  0.008  0.250-   6 2.68   9 2.71   1 2.75   8 2.75  21 2.78  12 2.78   2 2.78  24 2.79
                            17 2.81  32 2.88  19 2.90  31 2.91
   6  0.240  0.240  0.500-   5 2.68   2 2.71  10 2.76   7 2.77  22 2.78  32 2.78   3 2.78   9 2.78
                            29 2.78  20 2.80  18 2.85  21 2.88
   7  0.239  0.489  0.750-  17 2.65  30 2.66  19 2.76   6 2.77  29 2.78  23 2.78  10 2.78   4 2.78
                            22 2.78   3 2.79   8 2.91
   8  0.262  0.762  0.000-  20 2.65  23 2.66  12 2.72   5 2.75  24 2.77  30 2.78  11 2.78   1 2.78
                            18 2.83  31 2.87   4 2.88   7 2.91
   9  0.496  0.996  0.500-   5 2.71  10 2.73  13 2.73  12 2.74  25 2.78  16 2.78   6 2.78  23 2.81
                            20 2.83  21 2.85  28 2.87  19 2.88
  10  0.487  0.237  0.750-  17 2.64  24 2.65   9 2.73   6 2.76  20 2.78  26 2.78  13 2.78   7 2.78
                            22 2.80  25 2.83
  11  0.514  0.514  0.000-  26 2.64  23 2.65  12 2.72  15 2.75  17 2.78  27 2.78   8 2.78  14 2.78
                            21 2.81  18 2.84
  12  0.502  0.752  0.250-  16 2.71  11 2.72   8 2.72   9 2.74  18 2.78   5 2.78  15 2.78  24 2.83
                            27 2.84  22 2.85  19 2.87  28 2.89
  13  0.737  0.987  0.750-  27 2.64  24 2.65   9 2.73  23 2.75  16 2.76  10 2.78   4 2.78  32 2.80
                            29 2.80  25 2.83
  14  0.762  0.262  0.000-  26 2.65  29 2.66   2 2.73  15 2.76  28 2.77  24 2.78   1 2.78  11 2.78
                            30 2.79  21 2.79
  15  0.758  0.508  0.250-  31 2.64   3 2.67  16 2.68  11 2.75  14 2.76  21 2.78   2 2.78  12 2.78
                            30 2.80  27 2.81  25 2.85  22 2.88
  16  0.740  0.740  0.500-  15 2.68  12 2.71  13 2.76  22 2.78  32 2.78   3 2.78   9 2.78  23 2.78
                            26 2.80   4 2.80  31 2.81  28 2.91
  17  0.264  0.264  0.000-  10 2.64   7 2.65  18 2.72  21 2.75   1 2.78  11 2.78  30 2.78  24 2.78
                             5 2.81   2 2.84
  18  0.252  0.502  0.250-  19 2.70  22 2.71  17 2.72  30 2.72   2 2.78  12 2.78  21 2.78  31 2.78
                             8 2.83  11 2.84   6 2.85   3 2.87
  19  0.237  0.737  0.500-  18 2.70  31 2.73   4 2.74   7 2.76  20 2.77   3 2.78  22 2.78  32 2.78
                            23 2.79  12 2.87   9 2.88   5 2.90
  20  0.237  0.987  0.750-   1 2.64   8 2.65   4 2.69  32 2.76  19 2.77  10 2.78  29 2.78  23 2.78
                             6 2.80   9 2.83
  21  0.508  0.258  0.250-  22 2.68  25 2.71  17 2.75  24 2.76   5 2.78  15 2.78  28 2.78  18 2.78
                            14 2.79  11 2.81   9 2.85   6 2.88
  22  0.490  0.490  0.500-  21 2.68  18 2.71  26 2.76  23 2.77   6 2.78  16 2.78  19 2.78  25 2.78
                             7 2.78  10 2.80  12 2.85  15 2.88
  23  0.489  0.739  0.750-  11 2.65   8 2.66  13 2.75  22 2.77   7 2.78  20 2.78  26 2.78  16 2.78
                            19 2.79   9 2.81  24 2.91
  24  0.512  0.012  0.000-  10 2.65  13 2.65  21 2.76   8 2.77  14 2.78  17 2.78  27 2.78  28 2.78
                             5 2.79  12 2.83  23 2.91
  25  0.746  0.246  0.500-   3 2.68  28 2.69  21 2.71  26 2.73  29 2.74   9 2.78  22 2.78  32 2.78
                             2 2.81  13 2.83  10 2.83  15 2.85
  26  0.737  0.487  0.750-  11 2.64  14 2.65  25 2.73  22 2.76  10 2.78  23 2.78  29 2.78   3 2.78
                            16 2.80   4 2.86
  27  0.764  0.764  0.000-  13 2.64   4 2.68  31 2.68  28 2.77  11 2.78   1 2.78  30 2.78  24 2.78
                            15 2.81  12 2.84
  28  0.762  0.012  0.250-  32 2.66   2 2.67  25 2.69  27 2.77  14 2.77  21 2.78  24 2.78  31 2.78
                             1 2.78   9 2.87  12 2.89  16 2.91
  29  0.989  0.239  0.750-   1 2.65  14 2.66  25 2.74   3 2.76  32 2.77   7 2.78  26 2.78  20 2.78
                             6 2.78  13 2.80  30 2.91
  30  0.012  0.512  0.000-   7 2.66   4 2.68  31 2.69  18 2.72   8 2.78  27 2.78  17 2.78  14 2.79
                            15 2.80   2 2.83  29 2.91
  31  0.996  0.746  0.250-  15 2.64  27 2.68  30 2.69  19 2.73  32 2.75  18 2.78  28 2.78  16 2.81
                             3 2.83   8 2.87   1 2.88   5 2.91
  32  0.990  0.990  0.500-  28 2.66  31 2.75   4 2.76  20 2.76  29 2.77   6 2.78  16 2.78  19 2.78
                            25 2.78  13 2.80   2 2.85   5 2.88
 

IMPORTANT INFORMATION: All symmetrisations will be switched off!
NOSYMM: (Re-)initialisation of all symmetry stuff for point group C_1.

 
 
 KPOINTS: Server version 2017.10.18. K-point grid 
  k-points in reciprocal lattice
Space group operators:
 irot       det(A)        alpha          n_x          n_y          n_z        tau_x        tau_y        tau_z
    1     1.000000     0.000000     1.000000     0.000000     0.000000     0.000000     0.000000     0.000000


--------------------------------------------------------------------------------------------------------




 Dimension of arrays:
   k-points           NKPTS =     24   k-points in BZ     NKDIM =     24   number of bands    NBANDS=    307
   number of dos      NEDOS =    301   number of ions     NIONS =     32
   non local maximal  LDIM  =      6   non local SUM 2l+1 LMDIM =     18
   total plane-waves  NPLWV = 110592
   max r-space proj   IRMAX =   5103   max aug-charges    IRDMAX=   9337
   dimension x,y,z NGX =    48 NGY =   48 NGZ =   48
   dimension x,y,z NGXF=    96 NGYF=   96 NGZF=   96
   support grid    NGXF=    96 NGYF=   96 NGZF=   96
   ions per type =              32
 NGX,Y,Z   is equivalent  to a cutoff of  10.16, 10.16, 10.16 a.u.
 NGXF,Y,Z  is equivalent  to a cutoff of  20.32, 20.32, 20.32 a.u.


 I would recommend the setting:
   dimension x,y,z NGX =    44 NGY =   44 NGZ =   44
 SYSTEM =  unknown system                          
 POSCAR =  Pd                                      

 Startparameter for this run:
   NWRITE =      2    write-flag & timer
   PREC   = a         normal or accurate (medium, high low for compatibility)
   ISTART =      0    job   : 0-new  1-cont  2-samecut
   ICHARG =      2    charge: 1-file 2-atom 10-const
   ISPIN  =      1    spin polarized calculation?
   LNONCOLLINEAR =      F non collinear calculations
   LSORBIT =      F    spin-orbit coupling
   INIWAV =      1    electr: 0-lowe 1-rand  2-diag
   LASPH  =      F    aspherical Exc in radial PAW
   METAGGA=      F    non-selfconsistent MetaGGA calc.

 Electronic Relaxation 1
   ENCUT  =  300.0 eV  22.05 Ry    4.70 a.u.  11.09 11.09 11.09*2*pi/ulx,y,z
   ENINI  =  300.0     initial cutoff
   ENAUG  =  473.1 eV  augmentation charge cutoff
   NELM   =     60;   NELMIN=  2; NELMDL= -5     # of ELM steps 
   EDIFF  = 0.1E-04   stopping-criterion for ELM
   LREAL  =      T    real-space projection
   NLSPLINE    = F    spline interpolate recip. space projectors
   LCOMPAT=      F    compatible to vasp.4.4
   GGA_COMPAT  = T    GGA compatible to vasp.4.4-vasp.4.6
   LMAXPAW     = -100 max onsite density
   LMAXMIX     =    2 max onsite mixed and CHGCAR
   VOSKOWN=      0    Vosko Wilk Nusair interpolation
   ROPT   =   -0.00025
 Ionic relaxation
   EDIFFG = 0.1E-03   stopping-criterion for IOM
   NSW    =      0    number of steps for IOM
   NBLOCK =      1;   KBLOCK =      1    inner block; outer block 
   IBRION =     -1    ionic relax: 0-MD 1-quasi-New 2-CG
   NFREE  =      0    steps in history (QN), initial steepest desc. (CG)
   ISIF   =      2    stress and relaxation
   IWAVPR =      0    prediction:  0-non 1-charg 2-wave 3-comb
   ISYM   =      0    0-nonsym 1-usesym 2-fastsym
   LCORR  =      T    Harris-Foulkes like correction to forces

   POTIM  = 0.5000    time-step for ionic-motion
   TEIN   =    0.0    initial temperature
   TEBEG  =    0.0;   TEEND  =   0.0 temperature during run
   SMASS  =  -3.00    Nose mass-parameter (am)
   estimated Nose-frequenzy (Omega)   =  0.10E-29 period in steps =****** mass=  -0.141E-26a.u.
   SCALEE = 1.0000    scale energy and forces
   NPACO  =    256;   APACO  = 16.0  distance and # of slots for P.C.
   PSTRESS=    0.0 pullay stress

  Mass of Ions in am
   POMASS = 106.42
  Ionic Valenz
   ZVAL   =  16.00
  Atomic Wigner-Seitz radii
   RWIGS  =  -1.00
  virtual crystal weights 
   VCA    =   1.00
   NELECT =     512.0000    total number of electrons
   NUPDOWN=      -1.0000    fix difference up-down

 DOS related values:
   EMIN   =  10.00;   EMAX   =-10.00  energy-range for DOS
   EFERMI =   0.00
   ISMEAR =     1;   SIGMA  =   0.10  broadening in eV -4-tet -1-fermi 0-gaus

 Electronic relaxation 2 (details)
   IALGO  =     38    algorithm
   LDIAG  =      T    sub-space diagonalisation (order eigenvalues)
   LSUBROT=      T    optimize rotation matrix (better conditioning)
   TURBO    =      0    0=normal 1=particle mesh
   IRESTART =      0    0=no restart 2=restart with 2 vectors
   NREBOOT  =      0    no. of reboots
   NMIN     =      0    reboot dimension
   EREF     =   0.00    reference energy to select bands
   IMIX   =      4    mixing-type and parameters
     AMIX     =   0.40;   BMIX     =  1.00
     AMIX_MAG =   1.60;   BMIX_MAG =  1.00
     AMIN     =   0.10
     WC   =   100.;   INIMIX=   1;  MIXPRE=   1;  MAXMIX= -45

 Intra band minimization:
   WEIMIN = 0.0000     energy-eigenvalue tresh-hold
   EBREAK =  0.81E-08  absolut break condition
   DEPER  =   0.30     relativ break condition  

   TIME   =   0.40     timestep for ELM

  volume/ion in A,a.u.               =      15.14       102.17
  Fermi-wavevector in a.u.,A,eV,Ry     =   1.667531  3.151177 37.833172  2.780660
  Thomas-Fermi vector in A             =   2.753537
 
 Write flags
   LWAVE  =      F    write WAVECAR
   LCHARG =      T    write CHGCAR
   LVTOT  =      F    write LOCPOT, total local potential
   LVHAR  =      F    write LOCPOT, Hartree potential only
   LELF   =      F    write electronic localiz. function (ELF)
   LORBIT =      0    0 simple, 1 ext, 2 COOP (PROOUT)


 Dipole corrections
   LMONO  =      F    monopole corrections only (constant potential shift)
   LDIPOL =      F    correct potential (dipole corrections)
   IDIPOL =      0    1-x, 2-y, 3-z, 4-all directions 
   EPSILON=  1.0000000 bulk dielectric constant

 Exchange correlation treatment:
   GGA     =    --    GGA type
   LEXCH   =     8    internal setting for exchange type
   VOSKOWN=      0    Vosko Wilk Nusair interpolation
   LHFCALC =     F    Hartree Fock is set to
   LHFONE  =     F    Hartree Fock one center treatment
   AEXX    =    0.0000 exact exchange contribution

 Linear response parameters
   LEPSILON=     F    determine dielectric tensor
   LRPA    =     F    only Hartree local field effects (RPA)
   LNABLA  =     F    use nabla operator in PAW spheres
   LVEL    =     F    velocity operator in full k-point grid
   LINTERFAST=   F  fast interpolation
   KINTER  =     0    interpolate to denser k-point grid
   CSHIFT  =0.1000    complex shift for real part using Kramers Kronig
   OMEGAMAX=  -1.0    maximum frequency
   DEG_THRESHOLD= 0.2000000E-02 threshold for treating states as degnerate
   RTIME   =    0.100 relaxation time in fs

 Orbital magnetization related:
   ORBITALMAG=     F  switch on orbital magnetization
   LCHIMAG   =     F  perturbation theory with respect to B field
   DQ        =  0.001000  dq finite difference perturbation B field



--------------------------------------------------------------------------------------------------------


 Static calculation
 charge density and potential will be updated during run
 non-spin polarized calculation
 Variant of blocked Davidson
 Davidson routine will perform the subspace rotation
 perform sub-space diagonalisation
    after iterative eigenvector-optimisation
 modified Broyden-mixing scheme, WC =      100.0
 initial mixing is a Kerker type mixing with AMIX =  0.4000 and BMIX =      1.0000
 Hartree-type preconditioning will be used
 using additional bands           51
 real space projection scheme for non local part
 use partial core corrections
 calculate Harris-corrections to forces 
   (improved forces if not selfconsistent)
 use gradient corrections 
 use of overlap-Matrix (Vanderbilt PP)
 Methfessel and Paxton  Order N= 1 SIGMA  =   0.10


--------------------------------------------------------------------------------------------------------


  energy-cutoff  :      300.00
  volume of cell :      484.48
      direct lattice vectors                 reciprocal lattice vectors
     7.854000000 -0.000000000 -0.000000000     0.127323657  0.000000000 -0.000000000
    -0.000000000  7.854000000  0.000000000     0.000000000  0.127323657 -0.000000000
     0.000000000  0.000000000  7.854000000     0.000000000 -0.000000000  0.127323657

  length of vectors
     7.854000000  7.854000000  7.854000000     0.127323657  0.127323657  0.127323657


 
 k-points in units of 2pi/SCALE and weight: Server version 2017.10.18. K-point grid 
   0.03183091  0.01591546  0.11671335       0.042
   0.06366183  0.01591546  0.09549274       0.042
   0.09549274  0.01591546  0.07427213       0.042
   0.00000000  0.01591546  0.05305152       0.042
   0.03183091  0.01591546  0.03183091       0.042
   0.06366183  0.01591546  0.01061030       0.042
   0.09549274  0.01591546  0.11671335       0.042
   0.00000000  0.01591546  0.09549274       0.042
   0.03183091  0.01591546  0.07427213       0.042
   0.06366183  0.01591546  0.05305152       0.042
   0.09549274  0.01591546  0.03183091       0.042
   0.00000000  0.01591546  0.01061030       0.042
   0.03183091  0.04774637  0.09549274       0.042
   0.06366183  0.04774637  0.07427213       0.042
   0.09549274  0.04774637  0.05305152       0.042
   0.00000000  0.04774637  0.03183091       0.042
   0.03183091  0.04774637  0.01061030       0.042
   0.06366183  0.04774637  0.11671335       0.042
   0.09549274  0.04774637  0.09549274       0.042
   0.00000000  0.04774637  0.07427213       0.042
   0.03183091  0.04774637  0.05305152       0.042
   0.06366183  0.04774637  0.03183091       0.042
   0.09549274  0.04774637  0.01061030       0.042
   0.00000000  0.04774637  0.11671335       0.042
 
 k-points in reciprocal lattice and weights: Server version 2017.10.18. K-point grid 
   0.25000000  0.12500000  0.91666667       0.042
   0.50000000  0.12500000  0.75000000       0.042
   0.75000000  0.12500000  0.58333333       0.042
   0.00000000  0.12500000  0.41666667       0.042
   0.25000000  0.12500000  0.25000000       0.042
   0.50000000  0.12500000  0.08333333       0.042
   0.75000000  0.12500000  0.91666667       0.042
   0.00000000  0.12500000  0.75000000       0.042
   0.25000000  0.12500000  0.58333333       0.042
   0.50000000  0.12500000  0.41666667       0.042
   0.75000000  0.12500000  0.25000000       0.042
   0.00000000  0.12500000  0.08333333       0.042
   0.25000000  0.37500000  0.75000000       0.042
   0.50000000  0.37500000  0.58333333       0.042
   0.75000000  0.37500000  0.41666667       0.042
   0.00000000  0.37500000  0.25000000       0.042
   0.25000000  0.37500000  0.08333333       0.042
   0.50000000  0.37500000  0.91666667       0.042
   0.75000000  0.37500000  0.75000000       0.042
   0.00000000  0.37500000  0.58333333       0.042
   0.25000000  0.37500000  0.41666667       0.042
   0.50000000  0.37500000  0.25000000       0.042
   0.75000000  0.37500000  0.08333333       0.042
   0.00000000  0.37500000  0.91666667       0.042
 
 position of ions in fractional coordinates (direct lattice) 
   0.01356481  0.01356481  0.00000000
   0.00249689  0.25249689  0.25000000
   0.98703713  0.48703713  0.50000000
   0.99437810  0.74437810  0.75000000
   0.25842017  0.00842017  0.25000000
   0.24042229  0.24042229  0.50000000
   0.23927090  0.48927090  0.75000000
   0.26241450  0.76241450  0.00000000
   0.49600159  0.99600159  0.50000000
   0.48662160  0.23662160  0.75000000
   0.51356481  0.51356481  0.00000000
   0.50249689  0.75249689  0.25000000
   0.73703712  0.98703712  0.75000000
   0.76160759  0.26160759  0.00000000
   0.75842017  0.50842017  0.25000000
   0.74042229  0.74042229  0.50000000
   0.26356481  0.26356481  0.00000000
   0.25249689  0.50249689  0.25000000
   0.23703713  0.73703713  0.50000000
   0.23662160  0.98662160  0.75000000
   0.50842017  0.25842017  0.25000000
   0.49042229  0.49042229  0.50000000
   0.48927090  0.73927090  0.75000000
   0.51160759  0.01160759  0.00000000
   0.74600159  0.24600159  0.50000000
   0.73662160  0.48662160  0.75000000
   0.76356481  0.76356481  0.00000000
   0.76241449  0.01241449  0.25000000
   0.98927090  0.23927090  0.75000000
   0.01241450  0.51241450  0.00000000
   0.99600161  0.74600161  0.25000000
   0.99042229  0.99042229  0.50000000
 
 position of ions in cartesian coordinates  (Angst):
   0.10653800  0.10653800  0.00000000
   0.01961060  1.98311060  1.96350000
   7.75218960  3.82518960  3.92700000
   7.80984558  5.84634558  5.89050000
   2.02963202  0.06613202  1.96350000
   1.88827670  1.88827670  3.92700000
   1.87923362  3.84273362  5.89050000
   2.06100348  5.98800348  0.00000000
   3.89559651  7.82259651  3.92700000
   3.82192602  1.85842602  5.89050000
   4.03353800  4.03353800  0.00000000
   3.94661060  5.91011060  1.96350000
   5.78868956  7.75218956  5.89050000
   5.98166599  2.05466599 -0.00000000
   5.95663202  3.99313202  1.96350000
   5.81527670  5.81527670  3.92700000
   2.07003800  2.07003800  0.00000000
   1.98311060  3.94661060  1.96350000
   1.86168960  5.78868960  3.92700000
   1.85842602  7.74892602  5.89050000
   3.99313202  2.02963202  1.96350000
   3.85177670  3.85177670  3.92700000
   3.84273362  5.80623362  5.89050000
   4.01816599  0.09116599 -0.00000000
   5.85909651  1.93209651  3.92700000
   5.78542602  3.82192602  5.89050000
   5.99703800  5.99703800  0.00000000
   5.98800342  0.09750342  1.96350000
   7.76973362  1.87923362  5.89050000
   0.09750348  4.02450348  0.00000000
   7.82259664  5.85909664  1.96350000
   7.77877670  7.77877670  3.92700000
 


--------------------------------------------------------------------------------------------------------


 k-point  1 :   0.2500 0.1250 0.9167  plane waves:    5707
 k-point  2 :   0.5000 0.1250 0.7500  plane waves:    5710
 k-point  3 :   0.7500 0.1250 0.5833  plane waves:    5715
 k-point  4 :   0.0000 0.1250 0.4167  plane waves:    5721
 k-point  5 :   0.2500 0.1250 0.2500  plane waves:    5714
 k-point  6 :   0.5000 0.1250 0.0833  plane waves:    5712
 k-point  7 :   0.7500 0.1250 0.9167  plane waves:    5707
 k-point  8 :   0.0000 0.1250 0.7500  plane waves:    5709
 k-point  9 :   0.2500 0.1250 0.5833  plane waves:    5715
 k-point 10 :   0.5000 0.1250 0.4167  plane waves:    5718
 k-point 11 :   0.7500 0.1250 0.2500  plane waves:    5714
 k-point 12 :   0.0000 0.1250 0.0833  plane waves:    5703
 k-point 13 :   0.2500 0.3750 0.7500  plane waves:    5726
 k-point 14 :   0.5000 0.3750 0.5833  plane waves:    5738
 k-point 15 :   0.7500 0.3750 0.4167  plane waves:    5731
 k-point 16 :   0.0000 0.3750 0.2500  plane waves:    5721
 k-point 17 :   0.2500 0.3750 0.0833  plane waves:    5713
 k-point 18 :   0.5000 0.3750 0.9167  plane waves:    5716
 k-point 19 :   0.7500 0.3750 0.7500  plane waves:    5726
 k-point 20 :   0.0000 0.3750 0.5833  plane waves:    5702
 k-point 21 :   0.2500 0.3750 0.4167  plane waves:    5731
 k-point 22 :   0.5000 0.3750 0.2500  plane waves:    5728
 k-point 23 :   0.7500 0.3750 0.0833  plane waves:    5713
 k-point 24 :   0.0000 0.3750 0.9167  plane waves:    5709

 maximum number of plane-waves:      5738
 maximum index in each direction: 
   IXMAX=   11   IYMAX=   10   IZMAX=   11
   IXMIN=  -11   IYMIN=  -11   IZMIN=  -12

 NGX is ok and might be reduce to  46
 NGY is ok and might be reduce to  44
 NGZ is ok and might be reduce to  48

 total amount of memory used by VASP on root node   849937. kBytes
========================================================================

   base      :      30000. kBytes
   nonlr-proj:      27579. kBytes
   grid      :      47517. kBytes
   one-center:        497. kBytes
   wavefun   :     744344. kBytes
 
 For storing wavefunctions  673.92 MBYTES are necessary
 For predicting wavefunctions   69.67 MBYTES are necessary
 Broyden mixing: mesh for mixing (old mesh)
   NGX = 23   NGY = 23   NGZ = 23
  (NGX  = 96   NGY  = 96   NGZ  = 96)
  gives a total of  12167 points

 initial charge density was supplied:
 charge density of overlapping atoms calculated
 number of electron     512.0000000 magnetization 
 keeping initial charge density in first step


--------------------------------------------------------------------------------------------------------


 Maximum index for non-local projection operator         4921
 Maximum index for augmentation-charges         8882 (set IRDMAX)


--------------------------------------------------------------------------------------------------------


 First call to EWALD:  gamma=   0.226
 Maximum number of real-space cells 3x 3x 3
 Maximum number of reciprocal cells 3x 3x 3

    FEWALD:  cpu time    0.01: real time    0.01


----------------------------------------- Iteration    1(   1)  ---------------------------------------


    POTLOK:  cpu time    0.92: real time    0.92
    SETDIJ:  cpu time    0.15: real time    0.15
     EDDAV:  cpu time  745.41: real time  745.55
       DOS:  cpu time    0.04: real time    0.04
    --------------------------------------------
      LOOP:  cpu time  746.52: real time  746.66

 eigenvalue-minimisations  : 16024
 total energy-change (2. order) : 0.5593648E+04  (-0.2279694E+05)
 number of electron     512.0000000 magnetization 
 augmentation part      512.0000000 magnetization 

 Free energy of the ion-electron system (eV)
  ---------------------------------------------------
  alpha Z        PSCENC =      4309.77481446
  Ewald energy   TEWEN  =    -68791.83377287
  -1/2 Hartree   DENC   =    -17960.05909948
  -exchange  EXHF       =         0.00000000
  -V(xc)+E(xc)   XCENC  =      2649.39687492
  PAW double counting   =     72255.69020719   -71333.34611920
  entropy T*S    EENTRO =        -0.00161073
  eigenvalues    EBANDS =       577.38525298
  atomic energy  EATOM  =     83886.64112113
  ---------------------------------------------------
  free energy    TOTEN  =      5593.64766840 eV

  energy without entropy =     5593.64927913  energy(sigma->0) =     5593.64820531


--------------------------------------------------------------------------------------------------------




----------------------------------------- Iteration    1(   2)  ---------------------------------------


     EDDAV:  cpu time  710.25: real time  710.39
       DOS:  cpu time    0.04: real time    0.04
    --------------------------------------------
      LOOP:  cpu time  710.29: real time  710.43

 eigenvalue-minimisations  : 15194
 total energy-change (2. order) :-0.5433611E+04  (-0.5266359E+04)
 number of electron     512.0000000 magnetization 
 augmentation part      512.0000000 magnetization 

 Free energy of the ion-electron system (eV)
  ---------------------------------------------------
  alpha Z        PSCENC =      4309.77481446
  Ewald energy   TEWEN  =    -68791.83377287
  -1/2 Hartree   DENC   =    -17960.05909948
  -exchange  EXHF       =         0.00000000
  -V(xc)+E(xc)   XCENC  =      2649.39687492
  PAW double counting   =     72255.69020719   -71333.34611920
  entropy T*S    EENTRO =         0.00266065
  eigenvalues    EBANDS =     -4856.23009951
  atomic energy  EATOM  =     83886.64112113
  ---------------------------------------------------
  free energy    TOTEN  =       160.03658729 eV

  energy without entropy =      160.03392664  energy(sigma->0) =      160.03570041


--------------------------------------------------------------------------------------------------------




----------------------------------------- Iteration    1(   3)  ---------------------------------------


     EDDAV:  cpu time  726.53: real time  726.66
       DOS:  cpu time    0.04: real time    0.04
    --------------------------------------------
      LOOP:  cpu time  726.58: real time  726.71

 eigenvalue-minimisations  : 15647
 total energy-change (2. order) :-0.3252065E+03  (-0.2948152E+03)
 number of electron     512.0000000 magnetization 
 augmentation part      512.0000000 magnetization 

 Free energy of the ion-electron system (eV)
  ---------------------------------------------------
  alpha Z        PSCENC =      4309.77481446
  Ewald energy   TEWEN  =    -68791.83377287
  -1/2 Hartree   DENC   =    -17960.05909948
  -exchange  EXHF       =         0.00000000
  -V(xc)+E(xc)   XCENC  =      2649.39687492
  PAW double counting   =     72255.69020719   -71333.34611920
  entropy T*S    EENTRO =        -0.00081330
  eigenvalues    EBANDS =     -5181.43314975
  atomic energy  EATOM  =     83886.64112113
  ---------------------------------------------------
  free energy    TOTEN  =      -165.16993690 eV

  energy without entropy =     -165.16912360  energy(sigma->0) =     -165.16966580


--------------------------------------------------------------------------------------------------------




----------------------------------------- Iteration    1(   4)  ---------------------------------------


     EDDAV:  cpu time  724.31: real time  724.44
       DOS:  cpu time    0.04: real time    0.04
    --------------------------------------------
      LOOP:  cpu time  724.35: real time  724.49

 eigenvalue-minimisations  : 15541
 total energy-change (2. order) :-0.8505810E+01  (-0.8416955E+01)
 number of electron     512.0000000 magnetization 
 augmentation part      512.0000000 magnetization 

 Free energy of the ion-electron system (eV)
  ---------------------------------------------------
  alpha Z        PSCENC =      4309.77481446
  Ewald energy   TEWEN  =    -68791.83377287
  -1/2 Hartree   DENC   =    -17960.05909948
  -exchange  EXHF       =         0.00000000
  -V(xc)+E(xc)   XCENC  =      2649.39687492
  PAW double counting   =     72255.69020719   -71333.34611920
  entropy T*S    EENTRO =        -0.00248129
  eigenvalues    EBANDS =     -5189.93729151
  atomic energy  EATOM  =     83886.64112113
  ---------------------------------------------------
  free energy    TOTEN  =      -173.67574666 eV

  energy without entropy =     -173.67326536  energy(sigma->0) =     -173.67491956


--------------------------------------------------------------------------------------------------------




----------------------------------------- Iteration    1(   5)  ---------------------------------------


     EDDAV:  cpu time  721.35: real time  721.50
       DOS:  cpu time    0.04: real time    0.04
    CHARGE:  cpu time   45.63: real time   45.63
    MIXING:  cpu time    0.02: real time    0.02
    --------------------------------------------
      LOOP:  cpu time  767.04: real time  767.20

 eigenvalue-minimisations  : 15480
 total energy-change (2. order) :-0.8251417E-01  (-0.8248962E-01)
 number of electron     511.9999495 magnetization 
 augmentation part      239.1346980 magnetization 

 Broyden mixing:
  rms(total) = 0.26776E+01    rms(broyden)= 0.26743E+01
  rms(prec ) = 0.33952E+01
  weight for this iteration     100.00

 Free energy of the ion-electron system (eV)
  ---------------------------------------------------
  alpha Z        PSCENC =      4309.77481446
  Ewald energy   TEWEN  =    -68791.83377287
  -1/2 Hartree   DENC   =    -17960.05909948
  -exchange  EXHF       =         0.00000000
  -V(xc)+E(xc)   XCENC  =      2649.39687492
  PAW double counting   =     72255.69020719   -71333.34611920
  entropy T*S    EENTRO =        -0.00250461
  eigenvalues    EBANDS =     -5190.01978236
  atomic energy  EATOM  =     83886.64112113
  ---------------------------------------------------
  free energy    TOTEN  =      -173.75826082 eV

  energy without entropy =     -173.75575622  energy(sigma->0) =     -173.75742595


--------------------------------------------------------------------------------------------------------




----------------------------------------- Iteration    1(   6)  ---------------------------------------


    POTLOK:  cpu time    0.93: real time    0.93
    SETDIJ:  cpu time    0.16: real time    0.16
     EDDAV:  cpu time  714.74: real time  714.88
       DOS:  cpu time    0.04: real time    0.04
    CHARGE:  cpu time   45.47: real time   45.48
    MIXING:  cpu time    0.02: real time    0.02
    --------------------------------------------
      LOOP:  cpu time  761.36: real time  761.52

 eigenvalue-minimisations  : 15346
 total energy-change (2. order) : 0.7868800E+01  (-0.2972200E+01)
 number of electron     511.9999488 magnetization 
 augmentation part      245.3827298 magnetization 

 Broyden mixing:
  rms(total) = 0.60216E+00    rms(broyden)= 0.60203E+00
  rms(prec ) = 0.67506E+00
  weight for this iteration     100.00

 eigenvalues of (default mixing * dielectric matrix)
  average eigenvalue GAMMA=   1.1248
  1.1248

 Free energy of the ion-electron system (eV)
  ---------------------------------------------------
  alpha Z        PSCENC =      4309.77481446
  Ewald energy   TEWEN  =    -68791.83377287
  -1/2 Hartree   DENC   =    -17425.95750662
  -exchange  EXHF       =         0.00000000
  -V(xc)+E(xc)   XCENC  =      2626.05732951
  PAW double counting   =     73916.16968322   -73055.89358824
  entropy T*S    EENTRO =        -0.00532650
  eigenvalues    EBANDS =     -5630.84221483
  atomic energy  EATOM  =     83886.64112113
  ---------------------------------------------------
  free energy    TOTEN  =      -165.88946074 eV

  energy without entropy =     -165.88413425  energy(sigma->0) =     -165.88768524


--------------------------------------------------------------------------------------------------------




----------------------------------------- Iteration    1(   7)  ---------------------------------------


    POTLOK:  cpu time    0.93: real time    0.94
    SETDIJ:  cpu time    0.16: real time    0.16
     EDDAV:  cpu time  730.36: real time  730.50
       DOS:  cpu time    0.04: real time    0.04
    CHARGE:  cpu time   45.93: real time   45.94
    MIXING:  cpu time    0.02: real time    0.02
    --------------------------------------------
      LOOP:  cpu time  777.45: real time  777.61

 eigenvalue-minimisations  : 15624
 total energy-change (2. order) :-0.3702154E-01  (-0.6572068E-01)
 number of electron     511.9999489 magnetization 
 augmentation part      245.2952800 magnetization 

 Broyden mixing:
  rms(total) = 0.52759E+00    rms(broyden)= 0.52702E+00
  rms(prec ) = 0.95299E+00
  weight for this iteration     100.00

 eigenvalues of (default mixing * dielectric matrix)
  average eigenvalue GAMMA=   0.8963
  1.2331  0.5595

 Free energy of the ion-electron system (eV)
  ---------------------------------------------------
  alpha Z        PSCENC =      4309.77481446
  Ewald energy   TEWEN  =    -68791.83377287
  -1/2 Hartree   DENC   =    -17414.32281517
  -exchange  EXHF       =         0.00000000
  -V(xc)+E(xc)   XCENC  =      2625.45952773
  PAW double counting   =     74939.35020593   -74092.07741019
  entropy T*S    EENTRO =        -0.00799302
  eigenvalues    EBANDS =     -5628.91016029
  atomic energy  EATOM  =     83886.64112113
  ---------------------------------------------------
  free energy    TOTEN  =      -165.92648228 eV

  energy without entropy =     -165.91848926  energy(sigma->0) =     -165.92381794


--------------------------------------------------------------------------------------------------------




----------------------------------------- Iteration    1(   8)  ---------------------------------------


    POTLOK:  cpu time    0.94: real time    0.95
    SETDIJ:  cpu time    0.18: real time    0.18
     EDDAV:  cpu time  738.19: real time  738.32
       DOS:  cpu time    0.04: real time    0.04
    CHARGE:  cpu time   45.46: real time   45.47
    MIXING:  cpu time    0.02: real time    0.02
    --------------------------------------------
      LOOP:  cpu time  784.84: real time  784.98

 eigenvalue-minimisations  : 16050
 total energy-change (2. order) : 0.1387457E+00  (-0.6365459E-01)
 number of electron     511.9999488 magnetization 
 augmentation part      245.2933498 magnetization 

 Broyden mixing:
  rms(total) = 0.37135E+00    rms(broyden)= 0.37027E+00
  rms(prec ) = 0.59019E+00
  weight for this iteration     100.00

 eigenvalues of (default mixing * dielectric matrix)
  average eigenvalue GAMMA=   1.2182
  2.4738  0.9796  0.2012

 Free energy of the ion-electron system (eV)
  ---------------------------------------------------
  alpha Z        PSCENC =      4309.77481446
  Ewald energy   TEWEN  =    -68791.83377287
  -1/2 Hartree   DENC   =    -17410.21472320
  -exchange  EXHF       =         0.00000000
  -V(xc)+E(xc)   XCENC  =      2625.27128179
  PAW double counting   =     75145.39582474   -74300.43251264
  entropy T*S    EENTRO =        -0.00961132
  eigenvalues    EBANDS =     -5630.38015872
  atomic energy  EATOM  =     83886.64112113
  ---------------------------------------------------
  free energy    TOTEN  =      -165.78773662 eV

  energy without entropy =     -165.77812530  energy(sigma->0) =     -165.78453285


--------------------------------------------------------------------------------------------------------




----------------------------------------- Iteration    1(   9)  ---------------------------------------


    POTLOK:  cpu time    0.93: real time    0.94
    SETDIJ:  cpu time    0.17: real time    0.17
     EDDAV:  cpu time  728.59: real time  728.74
       DOS:  cpu time    0.04: real time    0.04
    CHARGE:  cpu time   45.75: real time   45.76
    MIXING:  cpu time    0.02: real time    0.02
    --------------------------------------------
      LOOP:  cpu time  775.51: real time  775.77

 eigenvalue-minimisations  : 15568
 total energy-change (2. order) : 0.3910000E-01  (-0.2604939E-01)
 number of electron     511.9999488 magnetization 
 augmentation part      245.3130254 magnetization 

 Broyden mixing:
  rms(total) = 0.20835E+00    rms(broyden)= 0.20792E+00
  rms(prec ) = 0.39678E+00
  weight for this iteration     100.00

 eigenvalues of (default mixing * dielectric matrix)
  average eigenvalue GAMMA=   0.9895
  2.5247  0.9821  0.1959  0.2552

 Free energy of the ion-electron system (eV)
  ---------------------------------------------------
  alpha Z        PSCENC =      4309.77481446
  Ewald energy   TEWEN  =    -68791.83377287
  -1/2 Hartree   DENC   =    -17387.86240161
  -exchange  EXHF       =         0.00000000
  -V(xc)+E(xc)   XCENC  =      2624.23727229
  PAW double counting   =     76292.86590948   -75460.19219181
  entropy T*S    EENTRO =        -0.00206884
  eigenvalues    EBANDS =     -5639.37731885
  atomic energy  EATOM  =     83886.64112113
  ---------------------------------------------------
  free energy    TOTEN  =      -165.74863662 eV

  energy without entropy =     -165.74656779  energy(sigma->0) =     -165.74794701


--------------------------------------------------------------------------------------------------------




----------------------------------------- Iteration    1(  10)  ---------------------------------------


    POTLOK:  cpu time    0.94: real time    0.94
    SETDIJ:  cpu time    0.17: real time    0.17
     EDDAV:  cpu time  720.13: real time  720.28
       DOS:  cpu time    0.04: real time    0.04
    CHARGE:  cpu time   45.47: real time   45.48
    MIXING:  cpu time    0.02: real time    0.02
    --------------------------------------------
      LOOP:  cpu time  766.78: real time  766.94

 eigenvalue-minimisations  : 15535
 total energy-change (2. order) : 0.4817086E-01  (-0.1107585E-01)
 number of electron     511.9999488 magnetization 
 augmentation part      245.3060085 magnetization 

 Broyden mixing:
  rms(total) = 0.35946E-01    rms(broyden)= 0.35047E-01
  rms(prec ) = 0.68576E-01
  weight for this iteration     100.00

 eigenvalues of (default mixing * dielectric matrix)
  average eigenvalue GAMMA=   0.8611
  2.5238  0.9815  0.3570  0.1974  0.2456

 Free energy of the ion-electron system (eV)
  ---------------------------------------------------
  alpha Z        PSCENC =      4309.77481446
  Ewald energy   TEWEN  =    -68791.83377287
  -1/2 Hartree   DENC   =    -17386.05723311
  -exchange  EXHF       =         0.00000000
  -V(xc)+E(xc)   XCENC  =      2624.15007679
  PAW double counting   =     76397.01483906   -75565.09484308
  entropy T*S    EENTRO =        -0.00301741
  eigenvalues    EBANDS =     -5640.29245074
  atomic energy  EATOM  =     83886.64112113
  ---------------------------------------------------
  free energy    TOTEN  =      -165.70046577 eV

  energy without entropy =     -165.69744836  energy(sigma->0) =     -165.69945996


--------------------------------------------------------------------------------------------------------




----------------------------------------- Iteration    1(  11)  ---------------------------------------


    POTLOK:  cpu time    0.94: real time    0.94
    SETDIJ:  cpu time    0.17: real time    0.17
     EDDAV:  cpu time  714.33: real time  714.46
       DOS:  cpu time    0.04: real time    0.04
    CHARGE:  cpu time   45.34: real time   45.34
    MIXING:  cpu time    0.02: real time    0.02
    --------------------------------------------
      LOOP:  cpu time  760.85: real time  760.99

 eigenvalue-minimisations  : 15344
 total energy-change (2. order) : 0.4170831E-03  (-0.1217933E-02)
 number of electron     511.9999488 magnetization 
 augmentation part      245.3050475 magnetization 

 Broyden mixing:
  rms(total) = 0.15443E-01    rms(broyden)= 0.15335E-01
  rms(prec ) = 0.25250E-01
  weight for this iteration     100.00

 eigenvalues of (default mixing * dielectric matrix)
  average eigenvalue GAMMA=   0.8385
  2.5155  0.9679  0.8821  0.2667  0.1995  0.1995

 Free energy of the ion-electron system (eV)
  ---------------------------------------------------
  alpha Z        PSCENC =      4309.77481446
  Ewald energy   TEWEN  =    -68791.83377287
  -1/2 Hartree   DENC   =    -17386.04422676
  -exchange  EXHF       =         0.00000000
  -V(xc)+E(xc)   XCENC  =      2624.14998455
  PAW double counting   =     76403.37472009   -75571.12940835
  entropy T*S    EENTRO =        -0.00309382
  eigenvalues    EBANDS =     -5640.63018712
  atomic energy  EATOM  =     83886.64112113
  ---------------------------------------------------
  free energy    TOTEN  =      -165.70004868 eV

  energy without entropy =     -165.69695486  energy(sigma->0) =     -165.69901741


--------------------------------------------------------------------------------------------------------




----------------------------------------- Iteration    1(  12)  ---------------------------------------


    POTLOK:  cpu time    0.92: real time    0.92
    SETDIJ:  cpu time    0.16: real time    0.16
     EDDAV:  cpu time  721.45: real time  721.62
       DOS:  cpu time    0.04: real time    0.04
    CHARGE:  cpu time   45.81: real time   45.81
    MIXING:  cpu time    0.02: real time    0.02
    --------------------------------------------
      LOOP:  cpu time  768.41: real time  768.59

 eigenvalue-minimisations  : 15359
 total energy-change (2. order) : 0.7166808E-04  (-0.1658846E-03)
 number of electron     511.9999488 magnetization 
 augmentation part      245.3156872 magnetization 

 Broyden mixing:
  rms(total) = 0.14595E-01    rms(broyden)= 0.14574E-01
  rms(prec ) = 0.25744E-01
  weight for this iteration     100.00

 eigenvalues of (default mixing * dielectric matrix)
  average eigenvalue GAMMA=   0.8074
  2.5103  1.1475  0.9899  0.3604  0.2522  0.2036  0.1881

 Free energy of the ion-electron system (eV)
  ---------------------------------------------------
  alpha Z        PSCENC =      4309.77481446
  Ewald energy   TEWEN  =    -68791.83377287
  -1/2 Hartree   DENC   =    -17386.18483022
  -exchange  EXHF       =         0.00000000
  -V(xc)+E(xc)   XCENC  =      2624.15646826
  PAW double counting   =     76416.22860454   -75583.08372421
  entropy T*S    EENTRO =        -0.00301826
  eigenvalues    EBANDS =     -5641.39563985
  atomic energy  EATOM  =     83886.64112113
  ---------------------------------------------------
  free energy    TOTEN  =      -165.69997701 eV

  energy without entropy =     -165.69695875  energy(sigma->0) =     -165.69897093


--------------------------------------------------------------------------------------------------------




----------------------------------------- Iteration    1(  13)  ---------------------------------------


    POTLOK:  cpu time    0.93: real time    0.93
    SETDIJ:  cpu time    0.17: real time    0.17
     EDDAV:  cpu time  714.28: real time  714.41
       DOS:  cpu time    0.04: real time    0.04
    CHARGE:  cpu time   45.68: real time   45.69
    MIXING:  cpu time    0.02: real time    0.02
    --------------------------------------------
      LOOP:  cpu time  761.12: real time  761.27

 eigenvalue-minimisations  : 15360
 total energy-change (2. order) : 0.2104310E-03  (-0.7409003E-04)
 number of electron     511.9999488 magnetization 
 augmentation part      245.3204514 magnetization 

 Broyden mixing:
  rms(total) = 0.65011E-02    rms(broyden)= 0.64776E-02
  rms(prec ) = 0.10746E-01
  weight for this iteration     100.00

 eigenvalues of (default mixing * dielectric matrix)
  average eigenvalue GAMMA=   0.8729
  2.5167  1.6420  0.9531  0.9531  0.2892  0.2447  0.1984  0.1859

 Free energy of the ion-electron system (eV)
  ---------------------------------------------------
  alpha Z        PSCENC =      4309.77481446
  Ewald energy   TEWEN  =    -68791.83377287
  -1/2 Hartree   DENC   =    -17386.49850933
  -exchange  EXHF       =         0.00000000
  -V(xc)+E(xc)   XCENC  =      2624.17009016
  PAW double counting   =     76426.01288602   -75592.25880545
  entropy T*S    EENTRO =        -0.00303251
  eigenvalues    EBANDS =     -5641.70455820
  atomic energy  EATOM  =     83886.64112113
  ---------------------------------------------------
  free energy    TOTEN  =      -165.69976658 eV

  energy without entropy =     -165.69673408  energy(sigma->0) =     -165.69875575


--------------------------------------------------------------------------------------------------------




----------------------------------------- Iteration    1(  14)  ---------------------------------------


    POTLOK:  cpu time    0.92: real time    0.92
    SETDIJ:  cpu time    0.16: real time    0.16
     EDDAV:  cpu time  726.77: real time  726.91
       DOS:  cpu time    0.04: real time    0.04
    CHARGE:  cpu time   46.10: real time   46.11
    MIXING:  cpu time    0.02: real time    0.02
    --------------------------------------------
      LOOP:  cpu time  774.02: real time  774.19

 eigenvalue-minimisations  : 15557
 total energy-change (2. order) :-0.3156453E-04  (-0.3189787E-04)
 number of electron     511.9999488 magnetization 
 augmentation part      245.3203804 magnetization 

 Broyden mixing:
  rms(total) = 0.88644E-02    rms(broyden)= 0.88554E-02
  rms(prec ) = 0.17262E-01
  weight for this iteration     100.00

 eigenvalues of (default mixing * dielectric matrix)
  average eigenvalue GAMMA=   0.8478
  2.5256  1.9817  0.9855  0.9855  0.3056  0.2442  0.2223  0.1862  0.1939

 Free energy of the ion-electron system (eV)
  ---------------------------------------------------
  alpha Z        PSCENC =      4309.77481446
  Ewald energy   TEWEN  =    -68791.83377287
  -1/2 Hartree   DENC   =    -17387.22253450
  -exchange  EXHF       =         0.00000000
  -V(xc)+E(xc)   XCENC  =      2624.20130601
  PAW double counting   =     76438.88438205   -75604.49013301
  entropy T*S    EENTRO =        -0.00307064
  eigenvalues    EBANDS =     -5641.65191078
  atomic energy  EATOM  =     83886.64112113
  ---------------------------------------------------
  free energy    TOTEN  =      -165.69979815 eV

  energy without entropy =     -165.69672750  energy(sigma->0) =     -165.69877460


--------------------------------------------------------------------------------------------------------




----------------------------------------- Iteration    1(  15)  ---------------------------------------


    POTLOK:  cpu time    0.92: real time    0.93
    SETDIJ:  cpu time    0.15: real time    0.15
     EDDAV:  cpu time  680.90: real time  681.03
       DOS:  cpu time    0.04: real time    0.04
    CHARGE:  cpu time   47.07: real time   47.08
    MIXING:  cpu time    0.03: real time    0.03
    --------------------------------------------
      LOOP:  cpu time  729.11: real time  729.26

 eigenvalue-minimisations  : 14456
 total energy-change (2. order) : 0.9135462E-04  (-0.1737961E-04)
 number of electron     511.9999488 magnetization 
 augmentation part      245.3195607 magnetization 

 Broyden mixing:
  rms(total) = 0.24915E-02    rms(broyden)= 0.24721E-02
  rms(prec ) = 0.44913E-02
  weight for this iteration     100.00

 eigenvalues of (default mixing * dielectric matrix)
  average eigenvalue GAMMA=   0.8201
  2.5316  1.9969  1.0161  1.0161  0.5075  0.2965  0.2527  0.2004  0.2004  0.1833

 Free energy of the ion-electron system (eV)
  ---------------------------------------------------
  alpha Z        PSCENC =      4309.77481446
  Ewald energy   TEWEN  =    -68791.83377287
  -1/2 Hartree   DENC   =    -17387.76657215
  -exchange  EXHF       =         0.00000000
  -V(xc)+E(xc)   XCENC  =      2624.22468223
  PAW double counting   =     76447.75717982   -75612.92645389
  entropy T*S    EENTRO =        -0.00305063
  eigenvalues    EBANDS =     -5641.56765489
  atomic energy  EATOM  =     83886.64112113
  ---------------------------------------------------
  free energy    TOTEN  =      -165.69970679 eV

  energy without entropy =     -165.69665617  energy(sigma->0) =     -165.69868992


--------------------------------------------------------------------------------------------------------




----------------------------------------- Iteration    1(  16)  ---------------------------------------


    POTLOK:  cpu time    0.93: real time    0.93
    SETDIJ:  cpu time    0.16: real time    0.16
     EDDAV:  cpu time  499.16: real time  499.24
       DOS:  cpu time    0.04: real time    0.04
    --------------------------------------------
      LOOP:  cpu time  500.29: real time  500.38

 eigenvalue-minimisations  :  9245
 total energy-change (2. order) : 0.8133095E-05  (-0.3559225E-05)
 number of electron     511.9999488 magnetization 
 augmentation part      245.3195607 magnetization 

 Free energy of the ion-electron system (eV)
  ---------------------------------------------------
  alpha Z        PSCENC =      4309.77481446
  Ewald energy   TEWEN  =    -68791.83377287
  -1/2 Hartree   DENC   =    -17387.93096866
  -exchange  EXHF       =         0.00000000
  -V(xc)+E(xc)   XCENC  =      2624.23173055
  PAW double counting   =     76449.83761553   -75614.89951148
  entropy T*S    EENTRO =        -0.00305462
  eigenvalues    EBANDS =     -5641.51767270
  atomic energy  EATOM  =     83886.64112113
  ---------------------------------------------------
  free energy    TOTEN  =      -165.69969866 eV

  energy without entropy =     -165.69664404  energy(sigma->0) =     -165.69868045


--------------------------------------------------------------------------------------------------------




 average (electrostatic) potential at core
  the test charge radii are     1.0504
  (the norm of the test charge is              1.0000)
       1 -74.6833       2 -74.7069       3 -74.7026       4 -74.6779       5 -74.6261
       6 -74.6603       7 -74.6786       8 -74.6773       9 -74.6320      10 -74.6791
      11 -74.6823      12 -74.6286      13 -74.6844      14 -74.6862      15 -74.7238
      16 -74.6594      17 -74.6810      18 -74.6664      19 -74.6386      20 -74.7018
      21 -74.6641      22 -74.6646      23 -74.6723      24 -74.6712      25 -74.7042
      26 -74.6735      27 -74.6771      28 -74.6776      29 -74.6783      30 -74.6791
      31 -74.6801      32 -74.6690
 
 
 
 E-fermi :   9.2116     XC(G=0): -13.1969     alpha+bet :-16.1055


 k-point   1 :       0.2500    0.1250    0.9167
  band No.  band energies     occupation 
      1     -40.7820      2.00000
      2     -40.7732      2.00000
      3     -40.7697      2.00000
      4     -40.7625      2.00000
      5     -40.7598      2.00000
      6     -40.7556      2.00000
      7     -40.7357      2.00000
      8     -40.7227      2.00000
      9     -40.7156      2.00000
     10     -40.7092      2.00000
     11     -40.7040      2.00000
     12     -40.7025      2.00000
     13     -40.6990      2.00000
     14     -40.6900      2.00000
     15     -40.6817      2.00000
     16     -40.6760      2.00000
     17     -40.6698      2.00000
     18     -40.6636      2.00000
     19     -40.6591      2.00000
     20     -40.6561      2.00000
     21     -40.6472      2.00000
     22     -40.6419      2.00000
     23     -40.6398      2.00000
     24     -40.6338      2.00000
     25     -40.6285      2.00000
     26     -40.6252      2.00000
     27     -40.6177      2.00000
     28     -40.6123      2.00000
     29     -40.6068      2.00000
     30     -40.6040      2.00000
     31     -40.6000      2.00000
     32     -40.5912      2.00000
     33     -40.5849      2.00000
     34     -40.5789      2.00000
     35     -40.5742      2.00000
     36     -40.5694      2.00000
     37     -40.5675      2.00000
     38     -40.5628      2.00000
     39     -40.5436      2.00000
     40     -40.5396      2.00000
     41     -40.5371      2.00000
     42     -40.5342      2.00000
     43     -40.5318      2.00000
     44     -40.5255      2.00000
     45     -40.5215      2.00000
     46     -40.5160      2.00000
     47     -40.5143      2.00000
     48     -40.5103      2.00000
     49     -40.5084      2.00000
     50     -40.5039      2.00000
     51     -40.5015      2.00000
     52     -40.4984      2.00000
     53     -40.4954      2.00000
     54     -40.4941      2.00000
     55     -40.4928      2.00000
     56     -40.4863      2.00000
     57     -40.4828      2.00000
     58     -40.4795      2.00000
     59     -40.4783      2.00000
     60     -40.4746      2.00000
     61     -40.4708      2.00000
     62     -40.4690      2.00000
     63     -40.4666      2.00000
     64     -40.4650      2.00000
     65     -40.4627      2.00000
     66     -40.4594      2.00000
     67     -40.4560      2.00000
     68     -40.4537      2.00000
     69     -40.4500      2.00000
     70     -40.4481      2.00000
     71     -40.4445      2.00000
     72     -40.4415      2.00000
     73     -40.4398      2.00000
     74     -40.4380      2.00000
     75     -40.4358      2.00000
     76     -40.4335      2.00000
     77     -40.4315      2.00000
     78     -40.4300      2.00000
     79     -40.4273      2.00000
     80     -40.4257      2.00000
     81     -40.4213      2.00000
     82     -40.4183      2.00000
     83     -40.4171      2.00000
     84     -40.4155      2.00000
     85     -40.4134      2.00000
     86     -40.4100      2.00000
     87     -40.4091      2.00000
     88     -40.4059      2.00000
     89     -40.4048      2.00000
     90     -40.4014      2.00000
     91     -40.3955      2.00000
     92     -40.3933      2.00000
     93     -40.3863      2.00000
     94     -40.3803      2.00000
     95     -40.3779      2.00000
     96     -40.3698      2.00000
     97       2.4835      2.00000
     98       3.7713      2.00000
     99       4.1415      2.00000
    100       4.1505      2.00000
    101       4.1521      2.00000
    102       4.1656      2.00000
    103       4.2189      2.00000
    104       4.2299      2.00000
    105       4.2678      2.00000
    106       4.2823      2.00000
    107       4.3578      2.00000
    108       4.3877      2.00000
    109       4.4138      2.00000
    110       4.4594      2.00000
    111       4.5803      2.00000
    112       4.6525      2.00000
    113       4.6881      2.00000
    114       4.8482      2.00000
    115       4.8575      2.00000
    116       4.8702      2.00000
    117       4.9061      2.00000
    118       4.9610      2.00000
    119       4.9952      2.00000
    120       5.0082      2.00000
    121       5.0275      2.00000
    122       5.0552      2.00000
    123       5.0856      2.00000
    124       5.0957      2.00000
    125       5.1417      2.00000
    126       5.1533      2.00000
    127       5.1640      2.00000
    128       5.1895      2.00000
    129       5.2056      2.00000
    130       5.2254      2.00000
    131       5.2605      2.00000
    132       5.2759      2.00000
    133       5.3038      2.00000
    134       5.3271      2.00000
    135       5.4194      2.00000
    136       5.4676      2.00000
    137       5.5021      2.00000
    138       5.5214      2.00000
    139       5.5501      2.00000
    140       5.5895      2.00000
    141       5.6684      2.00000
    142       5.6756      2.00000
    143       5.7020      2.00000
    144       5.7380      2.00000
    145       5.7756      2.00000
    146       5.8313      2.00000
    147       5.8412      2.00000
    148       5.8787      2.00000
    149       5.8909      2.00000
    150       5.9028      2.00000
    151       5.9358      2.00000
    152       5.9419      2.00000
    153       5.9588      2.00000
    154       6.0054      2.00000
    155       6.0524      2.00000
    156       6.0807      2.00000
    157       6.1195      2.00000
    158       6.1572      2.00000
    159       6.1764      2.00000
    160       6.2073      2.00000
    161       6.2280      2.00000
    162       6.2432      2.00000
    163       6.2817      2.00000
    164       6.3037      2.00000
    165       6.3398      2.00000
    166       6.3606      2.00000
    167       6.3789      2.00000
    168       6.3872      2.00000
    169       6.4112      2.00000
    170       6.4331      2.00000
    171       6.4472      2.00000
    172       6.4632      2.00000
    173       6.4957      2.00000
    174       6.5075      2.00000
    175       6.5300      2.00000
    176       6.5381      2.00000
    177       6.5480      2.00000
    178       6.5838      2.00000
    179       6.6155      2.00000
    180       6.6464      2.00000
    181       6.6997      2.00000
    182       6.7392      2.00000
    183       6.7887      2.00000
    184       6.7961      2.00000
    185       6.8183      2.00000
    186       6.9446      2.00000
    187       6.9632      2.00000
    188       7.0030      2.00000
    189       7.0469      2.00000
    190       7.1139      2.00000
    191       7.2133      2.00000
    192       7.2225      2.00000
    193       7.2922      2.00000
    194       7.3148      2.00000
    195       7.3460      2.00000
    196       7.3835      2.00000
    197       7.3883      2.00000
    198       7.4439      2.00000
    199       7.4549      2.00000
    200       7.5013      2.00000
    201       7.5504      2.00000
    202       7.6045      2.00000
    203       7.6389      2.00000
    204       7.6656      2.00000
    205       7.7032      2.00000
    206       7.7313      2.00000
    207       7.7743      2.00000
    208       7.8264      2.00000
    209       7.8565      2.00000
    210       7.8810      2.00000
    211       7.8967      2.00000
    212       7.9140      2.00000
    213       7.9268      2.00000
    214       7.9544      2.00000
    215       7.9957      2.00000
    216       8.0473      2.00000
    217       8.0553      2.00000
    218       8.1209      2.00000
    219       8.1314      2.00000
    220       8.1506      2.00000
    221       8.1636      2.00000
    222       8.1869      2.00000
    223       8.2202      2.00000
    224       8.2348      2.00000
    225       8.2442      2.00000
    226       8.2630      2.00000
    227       8.3459      2.00000
    228       8.3630      2.00000
    229       8.3930      2.00000
    230       8.3997      2.00000
    231       8.4066      2.00000
    232       8.4380      2.00000
    233       8.4522      2.00000
    234       8.4822      2.00000
    235       8.5079      2.00000
    236       8.5172      2.00000
    237       8.5549      2.00000
    238       8.5969      2.00000
    239       8.6413      2.00000
    240       8.7190      2.00000
    241       8.7642      2.00000
    242       8.8208      2.00000
    243       8.8300      2.00000
    244       8.9072      2.00015
    245       8.9681      2.00309
    246       8.9776      2.00460
    247       8.9935      2.00854
    248       9.0195      2.02048
    249       9.0460      2.04100
    250       9.0644      2.05780
    251       9.1182      2.03353
    252       9.1463      1.88417
    253       9.1661      1.68832
    254       9.1795      1.51241
    255       9.2782      0.10479
    256       9.2813      0.08195
    257       9.2883      0.03775
    258       9.3089     -0.04422
    259       9.3506     -0.06424
    260       9.4065     -0.01880
    261       9.4215     -0.01144
    262       9.4392     -0.00593
    263       9.4833     -0.00083
    264       9.7441     -0.00000
    265      10.0100     -0.00000
    266      10.0452     -0.00000
    267      10.4526     -0.00000
    268      10.7383     -0.00000
    269      10.8278     -0.00000
    270      10.9536     -0.00000
    271      11.0702     -0.00000
    272      11.2348     -0.00000
    273      11.4033     -0.00000
    274      11.6331     -0.00000
    275      12.0220      0.00000
    276      12.1779      0.00000
    277      12.3496      0.00000
    278      12.4452      0.00000
    279      13.1005      0.00000
    280      13.1805      0.00000
    281      13.2702      0.00000
    282      13.4597      0.00000
    283      15.7832      0.00000
    284      15.9470      0.00000
    285      15.9646      0.00000
    286      16.2015      0.00000
    287      16.3216      0.00000
    288      16.5981      0.00000
    289      16.7055      0.00000
    290      16.7411      0.00000
    291      17.0016      0.00000
    292      17.1755      0.00000
    293      17.2631      0.00000
    294      17.3348      0.00000
    295      18.0135      0.00000
    296      18.4753      0.00000
    297      18.6457      0.00000
    298      18.6814      0.00000
    299      18.9662      0.00000
    300      19.0277      0.00000
    301      19.2671      0.00000
    302      19.4685      0.00000
    303      19.7672      0.00000
    304      19.8265      0.00000
    305      19.8339      0.00000
    306      19.9191      0.00000
    307      19.9815      0.00000

 k-point   2 :       0.5000    0.1250    0.7500
  band No.  band energies     occupation 
      1     -40.7746      2.00000
      2     -40.7577      2.00000
      3     -40.7542      2.00000
      4     -40.7495      2.00000
      5     -40.7410      2.00000
      6     -40.7389      2.00000
      7     -40.7335      2.00000
      8     -40.7311      2.00000
      9     -40.7218      2.00000
     10     -40.7176      2.00000
     11     -40.7143      2.00000
     12     -40.7105      2.00000
     13     -40.7054      2.00000
     14     -40.7030      2.00000
     15     -40.6917      2.00000
     16     -40.6865      2.00000
     17     -40.6832      2.00000
     18     -40.6805      2.00000
     19     -40.6746      2.00000
     20     -40.6684      2.00000
     21     -40.6644      2.00000
     22     -40.6608      2.00000
     23     -40.6519      2.00000
     24     -40.6447      2.00000
     25     -40.6391      2.00000
     26     -40.6152      2.00000
     27     -40.6089      2.00000
     28     -40.6046      2.00000
     29     -40.5994      2.00000
     30     -40.5890      2.00000
     31     -40.5859      2.00000
     32     -40.5834      2.00000
     33     -40.5804      2.00000
     34     -40.5735      2.00000
     35     -40.5683      2.00000
     36     -40.5649      2.00000
     37     -40.5605      2.00000
     38     -40.5585      2.00000
     39     -40.5526      2.00000
     40     -40.5473      2.00000
     41     -40.5400      2.00000
     42     -40.5276      2.00000
     43     -40.5213      2.00000
     44     -40.5145      2.00000
     45     -40.5108      2.00000
     46     -40.5068      2.00000
     47     -40.5048      2.00000
     48     -40.5013      2.00000
     49     -40.4999      2.00000
     50     -40.4968      2.00000
     51     -40.4945      2.00000
     52     -40.4930      2.00000
     53     -40.4906      2.00000
     54     -40.4888      2.00000
     55     -40.4882      2.00000
     56     -40.4853      2.00000
     57     -40.4833      2.00000
     58     -40.4803      2.00000
     59     -40.4794      2.00000
     60     -40.4768      2.00000
     61     -40.4725      2.00000
     62     -40.4687      2.00000
     63     -40.4673      2.00000
     64     -40.4652      2.00000
     65     -40.4626      2.00000
     66     -40.4603      2.00000
     67     -40.4572      2.00000
     68     -40.4558      2.00000
     69     -40.4524      2.00000
     70     -40.4514      2.00000
     71     -40.4498      2.00000
     72     -40.4489      2.00000
     73     -40.4443      2.00000
     74     -40.4429      2.00000
     75     -40.4398      2.00000
     76     -40.4385      2.00000
     77     -40.4362      2.00000
     78     -40.4342      2.00000
     79     -40.4310      2.00000
     80     -40.4299      2.00000
     81     -40.4255      2.00000
     82     -40.4237      2.00000
     83     -40.4201      2.00000
     84     -40.4188      2.00000
     85     -40.4133      2.00000
     86     -40.4109      2.00000
     87     -40.4085      2.00000
     88     -40.4051      2.00000
     89     -40.3988      2.00000
     90     -40.3961      2.00000
     91     -40.3924      2.00000
     92     -40.3895      2.00000
     93     -40.3863      2.00000
     94     -40.3841      2.00000
     95     -40.3813      2.00000
     96     -40.3733      2.00000
     97       3.1299      2.00000
     98       3.1712      2.00000
     99       4.2169      2.00000
    100       4.2561      2.00000
    101       4.3388      2.00000
    102       4.3514      2.00000
    103       4.4338      2.00000
    104       4.4564      2.00000
    105       4.4656      2.00000
    106       4.4884      2.00000
    107       4.4948      2.00000
    108       4.5060      2.00000
    109       4.5192      2.00000
    110       4.5392      2.00000
    111       4.5559      2.00000
    112       4.5693      2.00000
    113       4.6461      2.00000
    114       4.6767      2.00000
    115       4.6950      2.00000
    116       4.7045      2.00000
    117       4.7123      2.00000
    118       4.7233      2.00000
    119       4.7972      2.00000
    120       4.8199      2.00000
    121       4.8256      2.00000
    122       4.8362      2.00000
    123       4.8398      2.00000
    124       4.8723      2.00000
    125       4.9683      2.00000
    126       4.9715      2.00000
    127       4.9814      2.00000
    128       5.0188      2.00000
    129       5.1444      2.00000
    130       5.1677      2.00000
    131       5.1976      2.00000
    132       5.2274      2.00000
    133       5.2613      2.00000
    134       5.2873      2.00000
    135       5.3118      2.00000
    136       5.3328      2.00000
    137       5.4147      2.00000
    138       5.4548      2.00000
    139       5.5182      2.00000
    140       5.5563      2.00000
    141       5.5775      2.00000
    142       5.6051      2.00000
    143       5.6208      2.00000
    144       5.6333      2.00000
    145       5.6696      2.00000
    146       5.6875      2.00000
    147       5.7999      2.00000
    148       5.8325      2.00000
    149       5.8838      2.00000
    150       5.9349      2.00000
    151       5.9502      2.00000
    152       5.9559      2.00000
    153       5.9804      2.00000
    154       5.9894      2.00000
    155       6.0645      2.00000
    156       6.1235      2.00000
    157       6.2006      2.00000
    158       6.2289      2.00000
    159       6.3315      2.00000
    160       6.3419      2.00000
    161       6.3665      2.00000
    162       6.3776      2.00000
    163       6.4004      2.00000
    164       6.4315      2.00000
    165       6.4515      2.00000
    166       6.4745      2.00000
    167       6.4939      2.00000
    168       6.5115      2.00000
    169       6.5273      2.00000
    170       6.5542      2.00000
    171       6.5902      2.00000
    172       6.6069      2.00000
    173       6.6251      2.00000
    174       6.6420      2.00000
    175       6.6631      2.00000
    176       6.6910      2.00000
    177       6.7320      2.00000
    178       6.7803      2.00000
    179       6.7900      2.00000
    180       6.8102      2.00000
    181       6.8362      2.00000
    182       6.8694      2.00000
    183       6.9022      2.00000
    184       6.9514      2.00000
    185       6.9747      2.00000
    186       6.9861      2.00000
    187       7.0549      2.00000
    188       7.0842      2.00000
    189       7.1368      2.00000
    190       7.1416      2.00000
    191       7.1618      2.00000
    192       7.1723      2.00000
    193       7.1970      2.00000
    194       7.2186      2.00000
    195       7.2532      2.00000
    196       7.2739      2.00000
    197       7.3082      2.00000
    198       7.3345      2.00000
    199       7.3575      2.00000
    200       7.4126      2.00000
    201       7.5234      2.00000
    202       7.5584      2.00000
    203       7.5976      2.00000
    204       7.6082      2.00000
    205       7.6197      2.00000
    206       7.6375      2.00000
    207       7.6720      2.00000
    208       7.6938      2.00000
    209       7.7051      2.00000
    210       7.7455      2.00000
    211       7.7627      2.00000
    212       7.7873      2.00000
    213       7.8203      2.00000
    214       7.8407      2.00000
    215       7.8861      2.00000
    216       7.9150      2.00000
    217       7.9791      2.00000
    218       7.9921      2.00000
    219       8.0060      2.00000
    220       8.0825      2.00000
    221       8.1551      2.00000
    222       8.1602      2.00000
    223       8.1720      2.00000
    224       8.1960      2.00000
    225       8.2169      2.00000
    226       8.2290      2.00000
    227       8.5196      2.00000
    228       8.5305      2.00000
    229       8.5413      2.00000
    230       8.5527      2.00000
    231       8.5725      2.00000
    232       8.5817      2.00000
    233       8.6144      2.00000
    234       8.6491      2.00000
    235       8.6652      2.00000
    236       8.6809      2.00000
    237       8.6895      2.00000
    238       8.7096      2.00000
    239       8.8195      2.00000
    240       8.8282      2.00000
    241       8.8672      2.00001
    242       8.8988      2.00009
    243       8.9074      2.00015
    244       8.9141      2.00021
    245       8.9252      2.00039
    246       8.9348      2.00065
    247       8.9467      2.00116
    248       8.9633      2.00250
    249       8.9848      2.00613
    250       8.9898      2.00745
    251       8.9991      2.01045
    252       9.0228      2.02261
    253       9.0650      2.05828
    254       9.0763      2.06669
    255       9.1028      2.06396
    256       9.1448      1.89615
    257       9.1520      1.83587
    258       9.1740      1.58901
    259       9.2880      0.03911
    260       9.3051     -0.03410
    261       9.3304     -0.07049
    262       9.3488     -0.06545
    263       9.5569     -0.00001
    264       9.6184     -0.00000
    265       9.9199     -0.00000
    266       9.9381     -0.00000
    267      10.5032     -0.00000
    268      10.5224     -0.00000
    269      10.8117     -0.00000
    270      10.8433     -0.00000
    271      10.8937     -0.00000
    272      10.9288     -0.00000
    273      12.1032      0.00000
    274      12.1067      0.00000
    275      12.9705      0.00000
    276      13.0155      0.00000
    277      13.1955      0.00000
    278      13.2073      0.00000
    279      13.7465      0.00000
    280      13.7855      0.00000
    281      13.9084      0.00000
    282      13.9353      0.00000
    283      14.7836      0.00000
    284      14.8148      0.00000
    285      15.0127      0.00000
    286      15.0592      0.00000
    287      15.6701      0.00000
    288      15.6826      0.00000
    289      16.4078      0.00000
    290      16.4973      0.00000
    291      16.8173      0.00000
    292      16.9460      0.00000
    293      17.0964      0.00000
    294      17.1158      0.00000
    295      17.3033      0.00000
    296      17.3471      0.00000
    297      17.7663      0.00000
    298      18.0490      0.00000
    299      18.5149      0.00000
    300      18.7194      0.00000
    301      18.8717      0.00000
    302      18.9342      0.00000
    303      19.5726      0.00000
    304      19.6528      0.00000
    305      19.7865      0.00000
    306      19.8068      0.00000
    307      20.0771      0.00000

 k-point   3 :       0.7500    0.1250    0.5833
  band No.  band energies     occupation 
      1     -40.7793      2.00000
      2     -40.7591      2.00000
      3     -40.7486      2.00000
      4     -40.7468      2.00000
      5     -40.7387      2.00000
      6     -40.7337      2.00000
      7     -40.7313      2.00000
      8     -40.7233      2.00000
      9     -40.7220      2.00000
     10     -40.7168      2.00000
     11     -40.7131      2.00000
     12     -40.7071      2.00000
     13     -40.7048      2.00000
     14     -40.6996      2.00000
     15     -40.6954      2.00000
     16     -40.6923      2.00000
     17     -40.6899      2.00000
     18     -40.6830      2.00000
     19     -40.6794      2.00000
     20     -40.6759      2.00000
     21     -40.6713      2.00000
     22     -40.6685      2.00000
     23     -40.6576      2.00000
     24     -40.6522      2.00000
     25     -40.6430      2.00000
     26     -40.6347      2.00000
     27     -40.5988      2.00000
     28     -40.5933      2.00000
     29     -40.5914      2.00000
     30     -40.5897      2.00000
     31     -40.5848      2.00000
     32     -40.5764      2.00000
     33     -40.5717      2.00000
     34     -40.5673      2.00000
     35     -40.5608      2.00000
     36     -40.5572      2.00000
     37     -40.5516      2.00000
     38     -40.5465      2.00000
     39     -40.5431      2.00000
     40     -40.5380      2.00000
     41     -40.5343      2.00000
     42     -40.5291      2.00000
     43     -40.5277      2.00000
     44     -40.5230      2.00000
     45     -40.5187      2.00000
     46     -40.5124      2.00000
     47     -40.5096      2.00000
     48     -40.5061      2.00000
     49     -40.5041      2.00000
     50     -40.4993      2.00000
     51     -40.4983      2.00000
     52     -40.4957      2.00000
     53     -40.4938      2.00000
     54     -40.4897      2.00000
     55     -40.4873      2.00000
     56     -40.4842      2.00000
     57     -40.4820      2.00000
     58     -40.4803      2.00000
     59     -40.4764      2.00000
     60     -40.4743      2.00000
     61     -40.4721      2.00000
     62     -40.4715      2.00000
     63     -40.4682      2.00000
     64     -40.4669      2.00000
     65     -40.4652      2.00000
     66     -40.4629      2.00000
     67     -40.4598      2.00000
     68     -40.4579      2.00000
     69     -40.4548      2.00000
     70     -40.4524      2.00000
     71     -40.4487      2.00000
     72     -40.4467      2.00000
     73     -40.4460      2.00000
     74     -40.4438      2.00000
     75     -40.4408      2.00000
     76     -40.4391      2.00000
     77     -40.4367      2.00000
     78     -40.4353      2.00000
     79     -40.4331      2.00000
     80     -40.4312      2.00000
     81     -40.4284      2.00000
     82     -40.4257      2.00000
     83     -40.4232      2.00000
     84     -40.4144      2.00000
     85     -40.4116      2.00000
     86     -40.4098      2.00000
     87     -40.4053      2.00000
     88     -40.4022      2.00000
     89     -40.4007      2.00000
     90     -40.3948      2.00000
     91     -40.3934      2.00000
     92     -40.3898      2.00000
     93     -40.3852      2.00000
     94     -40.3814      2.00000
     95     -40.3788      2.00000
     96     -40.3701      2.00000
     97       2.9508      2.00000
     98       3.3824      2.00000
     99       4.0953      2.00000
    100       4.2673      2.00000
    101       4.3722      2.00000
    102       4.3762      2.00000
    103       4.3935      2.00000
    104       4.4141      2.00000
    105       4.4273      2.00000
    106       4.4427      2.00000
    107       4.4677      2.00000
    108       4.5361      2.00000
    109       4.5490      2.00000
    110       4.5655      2.00000
    111       4.5858      2.00000
    112       4.6102      2.00000
    113       4.6274      2.00000
    114       4.6613      2.00000
[...]
         0         1         2         3         4         5         6         7         8         9
x   266.6804    0.0000    0.7448    0.5934    0.1708    0.8220   -0.8870    0.7554   42.5707    0.6810
x     0.2280    0.1770   -0.0167   -0.0220    0.1608   -0.1494   -7.0456   -0.2499   -0.1629   -0.1273
x    -0.0985   -0.1034    0.0675   -0.0714   -0.7938   -0.0510   -0.0160   -0.0131   -0.0082   -0.0066
x     0.0022   -0.0027   -0.0088   -0.0011   -0.0001   -0.0001   -0.0001   -0.0001    0.0000   -0.0000
x    -0.0000   -0.0000   -0.0000   -0.0000    0.0000    0.0000    0.0000   -0.0000    0.0000    0.0000
y   266.6804    0.0000   -0.6028   -0.7345   -0.1710   -0.8219    0.7218   -0.9194   42.5840    0.6813
y    -0.1897   -0.2138    0.0167    0.0217   -0.1368    0.1759   -7.0595   -0.2505    0.1486    0.1483
y     0.0983    0.1062   -0.0626    0.0790   -0.7944   -0.0511    0.0163    0.0137    0.0082    0.0070
y    -0.0024    0.0028   -0.0088   -0.0011    0.0002    0.0001    0.0001    0.0001   -0.0000    0.0000
y    -0.0000   -0.0000    0.0000    0.0000   -0.0000   -0.0000   -0.0000    0.0000    0.0000    0.0000
z   266.6804    0.0000   -0.0000    0.0013    0.0032    0.0149    0.0010   -0.0017   44.2817   -0.0002
z     0.0078    0.0082    0.0079   -0.0230    0.0088   -0.0084   -8.1407   -0.0000    0.0002    0.0010
z     0.0040    0.0023   -0.0025    0.0015   -1.1282   -0.0000   -0.0009   -0.0006    0.0004    0.0001
z    -0.0003    0.0002   -0.0179    0.0000   -0.0000   -0.0000    0.0000   -0.0000   -0.0000    0.0000
z    -0.0001    0.0000    0.0000    0.0000   -0.0000    0.0000    0.0000   -0.0000    0.0000    0.0000
 total charge-density along one line
x   511.9999    0.0000    1.4812    1.1837    0.3872    1.8803   -2.6007    2.2121  191.2723    3.0523
x     2.0561    1.5956    0.7000    1.1853   -0.8656    0.8127   19.3732    0.6809    0.2636    0.2042
x     0.0354    0.0436    0.0446   -0.0445   -1.0764   -0.0697   -0.0249   -0.0210   -0.0132   -0.0093
x    -0.0032    0.0050    0.1616    0.0183    0.0105    0.0091    0.0053    0.0037    0.0013   -0.0022
x    -0.0254   -0.0063   -0.0030   -0.0029   -0.0015   -0.0010   -0.0006    0.0014    0.0018    0.0028
x     0.0010    0.0011    0.0002    0.0002    0.0002   -0.0009    0.0026   -0.0014   -0.0003   -0.0005
x     0.0002    0.0001    0.0000    0.0006   -0.0027    0.0007    0.0001    0.0002   -0.0003   -0.0002
x    -0.0001   -0.0004    0.0019   -0.0004   -0.0000   -0.0001    0.0002    0.0002    0.0001    0.0002
x    -0.0011    0.0002    0.0000   -0.0000   -0.0001   -0.0002   -0.0001   -0.0001    0.0006   -0.0001
x    -0.0001    0.0001    0.0000    0.0001    0.0001    0.0001   -0.0005    0.0000
y   511.9999    0.0000   -1.2022   -1.4646   -0.3871   -1.8813    2.1177   -2.6990  191.2534    3.0520
y    -1.7106   -1.9266   -0.6996   -1.1839    0.7323   -0.9468   19.3125    0.6782   -0.2193   -0.2220
y    -0.0350   -0.0351   -0.0435    0.0551   -1.0928   -0.0711    0.0302    0.0246    0.0132    0.0125
y     0.0029   -0.0032    0.1609    0.0182   -0.0111   -0.0078   -0.0053   -0.0038   -0.0017    0.0018
y    -0.0253   -0.0063    0.0037    0.0019    0.0015    0.0010    0.0010   -0.0010    0.0018    0.0028
y    -0.0015   -0.0005   -0.0002   -0.0002   -0.0007    0.0005    0.0026   -0.0014    0.0006    0.0001
y    -0.0002   -0.0001    0.0004   -0.0002   -0.0027    0.0007   -0.0003    0.0000    0.0003    0.0002
y    -0.0003    0.0000    0.0019   -0.0004    0.0001   -0.0000   -0.0002   -0.0002    0.0002    0.0000
y    -0.0011    0.0002   -0.0000   -0.0000    0.0001    0.0002   -0.0001   -0.0001    0.0006   -0.0001
y    -0.0000    0.0001   -0.0000   -0.0001    0.0001    0.0001   -0.0005    0.0000
z   511.9999    0.0000   -0.0033   -0.0020    0.0057    0.0051    0.0096   -0.0089  198.3269   -0.0001
z     0.0176    0.0176    0.0157   -0.0340    0.0256   -0.0238   22.4326    0.0000    0.0098    0.0109
z     0.0127    0.0014    0.0013   -0.0034   -1.5186    0.0000   -0.0008    0.0004    0.0035    0.0007
z    -0.0013    0.0006    0.3190    0.0000   -0.0004   -0.0003   -0.0000   -0.0001    0.0001   -0.0001
z    -0.0901    0.0000    0.0001    0.0001    0.0000    0.0000   -0.0000    0.0000    0.0352   -0.0000
z    -0.0000   -0.0000   -0.0000   -0.0000    0.0000   -0.0000   -0.0158   -0.0000    0.0000    0.0000
z     0.0000    0.0000   -0.0000    0.0000    0.0077    0.0000   -0.0000   -0.0000   -0.0000   -0.0000
z     0.0000   -0.0000   -0.0039    0.0000    0.0000   -0.0000   -0.0000    0.0000    0.0000    0.0000
z     0.0020   -0.0000    0.0000   -0.0000   -0.0000   -0.0000    0.0000   -0.0000   -0.0012   -0.0000
z    -0.0000    0.0000    0.0000    0.0000   -0.0000   -0.0000    0.0010    0.0000
 
 pseudopotential strength for first ion, spin component:           1
-37.283   0.008   0.008   8.276  -0.004  -0.004  -0.000   0.002
  0.008 -37.303   0.017  -0.004   8.286  -0.009  -0.001  -0.006
  0.008   0.017 -37.289  -0.004  -0.009   8.278  -0.000  -0.001
  8.276  -0.004  -0.004   7.865   0.001   0.001   0.001  -0.001
 -0.004   8.286  -0.009   0.001   7.863   0.002   0.000   0.002
 -0.004  -0.009   8.278   0.001   0.002   7.865   0.001   0.000
 -0.000  -0.001  -0.000   0.001   0.000   0.001  -2.330   0.007
  0.002  -0.006  -0.001  -0.001   0.002   0.000   0.007  -2.338
 -0.002   0.002  -0.001  -0.000  -0.001  -0.000  -0.002   0.003
 -0.001  -0.005   0.001   0.000   0.002  -0.001   0.003   0.008
  0.003  -0.000  -0.003  -0.002   0.000   0.001  -0.000  -0.005
 -0.000  -0.001  -0.000   0.001   0.000   0.001  -1.984   0.008
  0.003  -0.007  -0.001  -0.001   0.003   0.000   0.008  -1.993
 -0.002   0.003  -0.001  -0.000  -0.001  -0.000  -0.003   0.004
 -0.001  -0.005   0.002   0.000   0.002  -0.001   0.004   0.009
  0.004  -0.000  -0.003  -0.002   0.000   0.001  -0.000  -0.006
  0.003  -0.002   0.002   0.000  -0.000   0.000  -0.002  -0.002
  0.006  -0.003   0.004   0.000  -0.001   0.000  -0.005  -0.004
 total augmentation occupancy for first ion, spin component:           1
  1.997   0.000   0.000  -0.013   0.000   0.000   0.000  -0.001   0.000   0.000  -0.001   0.000   0.001  -0.001  -0.000   0.001
  0.000   1.997   0.000   0.000  -0.013   0.000   0.000   0.002  -0.001   0.002   0.000  -0.000  -0.003   0.001  -0.002  -0.000
  0.000   0.000   1.997   0.000   0.000  -0.013   0.000   0.000   0.000  -0.001   0.001   0.000  -0.000  -0.001   0.000  -0.001
 -0.013   0.000   0.000   0.103  -0.001  -0.001  -0.003  -0.008   0.011   0.005  -0.018   0.000   0.005  -0.005  -0.002   0.013
  0.000  -0.013   0.000  -0.001   0.106  -0.005   0.004   0.037  -0.010   0.028   0.003  -0.003  -0.021   0.008  -0.016  -0.002
  0.000   0.000  -0.013  -0.001  -0.005   0.104  -0.001   0.004   0.009  -0.002   0.015  -0.002  -0.003  -0.005   0.002  -0.010
  0.000   0.000   0.000  -0.003   0.004  -0.001   2.705  -0.010  -0.003   0.015  -0.002  -0.703   0.010   0.002  -0.011   0.002
 -0.001   0.002   0.000  -0.008   0.037   0.004  -0.010   2.716  -0.009  -0.027   0.019   0.010  -0.713   0.007   0.022  -0.014
  0.000  -0.001   0.000   0.011  -0.010   0.009  -0.003  -0.009   2.517  -0.046   0.001   0.002   0.007  -0.545   0.038  -0.000
  0.000   0.002  -0.001   0.005   0.028  -0.002   0.015  -0.027  -0.046   2.726  -0.049  -0.011   0.022   0.038  -0.722   0.040
 -0.001   0.000   0.001  -0.018   0.003   0.015  -0.002   0.019   0.001  -0.049   2.475   0.002  -0.013  -0.000   0.039  -0.510
  0.000  -0.000   0.000   0.000  -0.003  -0.002  -0.703   0.010   0.002  -0.011   0.002   0.455  -0.014   0.006   0.007  -0.002
  0.001  -0.003  -0.000   0.005  -0.021  -0.003   0.010  -0.713   0.007   0.022  -0.013  -0.014   0.461  -0.000  -0.001   0.004
 -0.001   0.001  -0.001  -0.005   0.008  -0.005   0.002   0.007  -0.545   0.038  -0.000   0.006  -0.000   0.435  -0.016  -0.002
 -0.000  -0.002   0.000  -0.002  -0.016   0.002  -0.011   0.022   0.038  -0.722   0.039   0.007  -0.001  -0.016   0.458  -0.017
  0.001  -0.000  -0.001   0.013  -0.002  -0.010   0.002  -0.014  -0.000   0.040  -0.510  -0.002   0.004  -0.002  -0.017   0.416
 -0.001   0.001  -0.001   0.019  -0.007   0.014  -0.010  -0.004   0.013  -0.044   0.002   0.015   0.005  -0.023   0.050  -0.002
  0.001  -0.001   0.000  -0.001   0.000  -0.001  -0.002  -0.003   0.004  -0.003   0.001  -0.001   0.000   0.001  -0.002   0.000


------------------------ aborting loop because EDIFF is reached ----------------------------------------


    CHARGE:  cpu time   46.73: real time   46.73
    FORLOC:  cpu time    0.13: real time    0.13
    FORNL :  cpu time  243.15: real time  243.17
    STRESS:  cpu time  739.71: real time  739.81
    FORCOR:  cpu time    1.05: real time    1.05
    FORHAR:  cpu time    0.34: real time    0.34
    MIXING:  cpu time    0.03: real time    0.03

  FORCE on cell =-STRESS in cart. coord.  units (eV):
  Direction    XX          YY          ZZ          XY          YZ          ZX
  --------------------------------------------------------------------------------------
  Alpha Z  4309.77481  4309.77481  4309.77481
  Ewald  -23017.49979-23018.08499-22756.52464  -156.11822    14.54292    14.39219
  Hartree  5750.61683  5751.26615  5886.49987   -90.84641     9.15256     7.69564
  E(xc)   -2903.54265 -2903.56280 -2903.37386    -0.11061     0.02491     0.01469
  Local    5794.73344  5792.16898  5414.58694   240.48631   -25.27968   -20.89382
  n-local  -900.44126  -902.39531  -901.34842    -0.89649     0.68148     0.30917
  augment  3882.65335  3885.09394  3877.04803     3.06707     0.58716    -0.70203
  Kinetic  7091.23227  7093.44140  7084.23032     3.47266     0.99603    -0.75909
  Fock        0.00000     0.00000     0.00000     0.00000     0.00000     0.00000
  -------------------------------------------------------------------------------------
  Total       7.52701     7.70219    10.89305    -0.94569     0.70538     0.05675
  in kB      24.89204    25.47137    36.02362    -3.12741     2.33271     0.18766
  external pressure =       28.80 kB  Pullay stress =        0.00 kB


 VOLUME and BASIS-vectors are now :
 -----------------------------------------------------------------------------
  energy-cutoff  :      300.00
  volume of cell :      484.48
      direct lattice vectors                 reciprocal lattice vectors
     7.854000000 -0.000000000 -0.000000000     0.127323657  0.000000000 -0.000000000
    -0.000000000  7.854000000  0.000000000     0.000000000  0.127323657 -0.000000000
     0.000000000  0.000000000  7.854000000     0.000000000 -0.000000000  0.127323657

  length of vectors
     7.854000000  7.854000000  7.854000000     0.127323657  0.127323657  0.127323657


 FORCES acting on ions
    electron-ion (+dipol)            ewald-force                    non-local-force                 convergence-correction
 -----------------------------------------------------------------------------------------------
   0.129E+02 0.461E+02 -.220E+02   -.129E+02 -.461E+02 0.222E+02   -.409E+00 -.498E+00 0.346E-01   0.380E-01 -.304E-01 0.412E-01
   -.452E+02 0.510E+01 0.203E+02   0.454E+02 -.506E+01 -.204E+02   -.122E-01 0.134E+00 -.566E-01   0.622E-01 -.121E-01 0.844E-02
   -.516E+02 -.465E+02 -.440E+02   0.517E+02 0.465E+02 0.442E+02   0.396E+00 0.406E+00 0.100E+00   0.477E-01 0.242E-01 0.263E-03
   0.207E+02 0.199E+02 0.452E+01   -.207E+02 -.200E+02 -.466E+01   -.414E-01 -.220E-01 0.138E-01   0.151E-01 -.147E-01 -.798E-02
   0.118E+02 0.600E+02 -.154E+02   -.117E+02 -.600E+02 0.153E+02   -.422E+00 -.330E+00 0.311E-01   -.231E-01 -.107E-01 0.688E-02
   -.278E+02 0.413E+01 -.210E+01   0.279E+02 -.419E+01 0.218E+01   0.173E+00 0.263E+00 0.156E-01   -.108E-01 -.133E-01 -.861E-02
   -.236E+02 -.234E+02 0.776E+01   0.236E+02 0.234E+02 -.800E+01   0.324E+00 0.334E+00 0.416E-02   -.961E-02 0.744E-02 0.516E-02
   0.268E+02 0.215E+02 -.459E+02   -.268E+02 -.215E+02 0.461E+02   -.530E+00 -.480E+00 0.926E-01   -.234E-01 -.113E-02 0.148E-01
   0.197E+02 0.337E+02 0.250E+02   -.198E+02 -.338E+02 -.250E+02   0.246E-01 0.462E-02 -.435E-01   -.254E-01 -.177E-01 -.925E-02
   -.245E+02 -.232E+02 0.912E+01   0.246E+02 0.232E+02 -.938E+01   0.471E+00 0.473E+00 0.996E-02   -.550E-01 -.126E-01 -.828E-02
   0.354E+02 0.214E+02 -.640E+01   -.354E+02 -.215E+02 0.666E+01   -.466E+00 -.459E+00 -.101E-01   -.543E-01 0.183E-01 -.943E-02
   0.110E+02 -.399E+02 -.192E+02   -.110E+02 0.400E+02 0.193E+02   0.121E+00 -.210E-01 0.410E-01   -.174E-01 0.454E-01 0.534E-02
   -.249E+02 -.252E+02 0.890E+01   0.248E+02 0.253E+02 -.914E+01   0.552E+00 0.537E+00 0.804E-02   -.310E-02 -.326E-01 -.219E-01
   0.380E+02 0.242E+02 0.188E+02   -.381E+02 -.242E+02 -.187E+02   -.389E+00 -.372E+00 -.554E-01   0.986E-02 -.165E-01 0.160E-01
   0.615E+02 0.138E+02 0.239E+02   -.618E+02 -.139E+02 -.241E+02   -.295E+00 -.398E+00 -.634E-01   0.303E-01 0.294E-01 0.502E-02
   0.148E+02 -.362E+02 -.185E+02   -.150E+02 0.362E+02 0.187E+02   0.284E+00 0.211E+00 0.459E-01   0.178E-01 0.342E-01 0.370E-03
   0.227E+02 0.345E+02 -.903E+01   -.227E+02 -.345E+02 0.927E+01   -.450E+00 -.496E+00 -.220E-02   -.159E-01 -.131E-02 0.718E-02
   -.154E+02 -.157E+02 0.781E+00   0.155E+02 0.157E+02 -.761E+00   -.107E+00 -.922E-01 -.287E-01   -.383E-01 0.589E-03 -.111E-01
   -.476E+02 -.525E+02 0.351E+02   0.476E+02 0.524E+02 -.351E+02   0.415E+00 0.447E+00 -.961E-01   -.201E-01 0.171E-01 -.547E-02
   -.600E+02 -.346E+02 0.291E+02   0.601E+02 0.347E+02 -.294E+02   0.553E+00 0.478E+00 -.466E-01   0.141E-01 -.646E-02 -.142E-01
   0.265E+02 0.262E+02 0.393E+01   -.264E+02 -.261E+02 -.402E+01   -.204E+00 -.199E+00 -.141E-01   -.480E-01 -.334E-01 0.340E-02
   0.382E+01 -.273E+02 -.458E+01   -.391E+01 0.273E+02 0.464E+01   0.284E+00 0.171E+00 0.172E-01   -.417E-01 0.110E-01 0.190E-01
   -.170E+02 -.296E+02 0.275E+02   0.171E+02 0.296E+02 -.278E+02   0.230E+00 0.369E+00 -.435E-01   -.279E-01 0.142E-01 -.105E-01
   0.247E+02 0.387E+02 -.329E+02   -.246E+02 -.388E+02 0.332E+02   -.359E+00 -.399E+00 0.599E-01   -.366E-01 -.207E-01 0.145E-01
   0.392E+02 0.257E+02 -.266E+02   -.393E+02 -.258E+02 0.267E+02   -.993E-02 0.121E-01 0.687E-01   0.344E-02 -.354E-01 -.762E-02
   -.317E+02 -.564E+02 -.105E+02   0.317E+02 0.564E+02 0.103E+02   0.481E+00 0.553E+00 0.550E-01   0.139E-01 0.457E-01 -.133E-01
   0.464E+02 0.148E+02 0.734E+01   -.465E+02 -.149E+02 -.720E+01   -.495E+00 -.420E+00 -.317E-01   0.199E-01 0.164E-01 0.737E-02
   0.700E+02 0.739E+02 0.632E+01   -.701E+02 -.739E+02 -.648E+01   -.524E+00 -.553E+00 -.179E-01   0.122E-01 -.452E-01 0.174E-01
   -.287E+02 -.168E+02 -.121E+02   0.287E+02 0.169E+02 0.120E+02   0.366E+00 0.244E+00 0.603E-01   0.569E-01 0.372E-02 -.165E-01
   0.217E+02 0.274E+02 0.327E+02   -.217E+02 -.274E+02 -.326E+02   -.504E+00 -.507E+00 -.904E-01   0.528E-01 0.255E-01 0.313E-03
   -.750E+02 -.786E+02 -.347E+01   0.752E+02 0.789E+02 0.359E+01   0.368E+00 0.368E+00 -.188E-01   0.361E-01 0.349E-01 0.424E-02
   -.346E+02 0.148E+02 0.119E+02   0.346E+02 -.149E+02 -.118E+02   0.198E+00 0.270E+00 -.439E-01   0.237E-01 -.275E-01 -.319E-01
 -----------------------------------------------------------------------------------------------
   -.203E-01 -.182E-01 0.402E-02   -.348E-12 0.171E-12 -.568E-13   0.227E-01 0.278E-01 -.489E-02   0.324E-02 -.369E-02 0.703E-03
 
 
 POSITION                                       TOTAL-FORCE (eV/Angst)
 -----------------------------------------------------------------------------------
      0.10654      0.10654      0.00000        -0.432283     -0.544543      0.278856
      0.01961      1.98311      1.96350         0.276816      0.169758     -0.117521
      7.75219      3.82519      3.92700         0.488238      0.436008      0.305357
      7.80985      5.84635      5.89050        -0.077616     -0.073017     -0.132576
      2.02963      0.06613      1.96350        -0.287531     -0.400325     -0.023678
      1.88828      1.88828      3.92700         0.176088      0.189162      0.092037
      1.87923      3.84273      5.89050         0.335078      0.352983     -0.229486
      2.06100      5.98800      0.00000        -0.507336     -0.466805      0.363429
      3.89560      7.82260      3.92700        -0.052944     -0.128842     -0.100828
      3.82193      1.85843      5.89050         0.456393      0.454371     -0.260594
      4.03354      4.03354      0.00000        -0.488097     -0.493918      0.233822
      3.94661      5.91011      1.96350         0.069924      0.191644      0.086939
      5.78869      7.75219      5.89050         0.527122      0.523500     -0.248101
      5.98167      2.05467     -0.00000        -0.439286     -0.380588      0.096861
      5.95663      3.99313      1.96350        -0.554719     -0.462833     -0.211799
      5.81528      5.81528      3.92700         0.126624      0.253039      0.183846
      2.07004      2.07004      0.00000        -0.502577     -0.485990      0.243258
      1.98311      3.94661      1.96350        -0.034325     -0.056514     -0.020456
      1.86169      5.78869      3.92700         0.351228      0.385035     -0.091208
      1.85843      7.74893      5.89050         0.652795      0.575361     -0.360551
      3.99313      2.02963      1.96350        -0.124432     -0.148990     -0.100866
      3.85178      3.85178      3.92700         0.148211      0.208888      0.096966
      3.84273      5.80623      5.89050         0.306436      0.373232     -0.324749
      4.01817      0.09117     -0.00000        -0.354819     -0.444055      0.343583
      5.85910      1.93210      3.92700        -0.194387     -0.126263      0.152222
      5.78543      3.82193      5.89050         0.539925      0.597403     -0.167808
      5.99704      5.99704      0.00000        -0.533675     -0.427800      0.110979
      5.98800      0.09750      1.96350        -0.646442     -0.620998     -0.159514
      7.76973      1.87923      5.89050         0.367600      0.330341     -0.119668
      0.09750      4.02450      0.00000        -0.471290     -0.517537     -0.042367
      7.82260      5.85910      1.96350         0.613755      0.627548      0.101717
      7.77878      7.77878      3.92700         0.265526      0.110745      0.021899
 -----------------------------------------------------------------------------------
    total drift:                                0.005711      0.005852     -0.000165


--------------------------------------------------------------------------------------------------------



  FREE ENERGIE OF THE ION-ELECTRON SYSTEM (eV)
  ---------------------------------------------------
  free  energy   TOTEN  =      -165.69969866 eV

  energy  without entropy=     -165.69664404  energy(sigma->0) =     -165.69868045
 


--------------------------------------------------------------------------------------------------------


    POTLOK:  cpu time    1.09: real time    1.10


--------------------------------------------------------------------------------------------------------


     LOOP+:  cpu time12868.71: real time12872.41
    4ORBIT:  cpu time    0.00: real time    0.00

 total amount of memory used by VASP on root node   849937. kBytes
========================================================================

   base      :      30000. kBytes
   nonlr-proj:      27579. kBytes
   grid      :      47517. kBytes
   one-center:        497. kBytes
   wavefun   :     744344. kBytes
 
  
  
 General timing and accounting informations for this job:
 ========================================================
  
                  Total CPU time used (sec):    12969.262
                            User time (sec):    12967.062
                          System time (sec):        2.200
                         Elapsed time (sec):    12973.331
  
                   Maximum memory used (kb):     2313172.
                   Average memory used (kb):           0.
  
                          Minor page faults:       889645
                          Major page faults:            2
                 Voluntary context switches:          309
