 vasp.5.3.3 18Dez12 (build Jun 21 2016 14:15:03) complex                        
  
 executed on             LinuxIFC date 2017.10.19  13:24:50
 serial version


--------------------------------------------------------------------------------------------------------


 INCAR:
 POTCAR:    PAW_PBE Pd_pv 28Jan2005               
 POTCAR:    PAW_PBE Pd_pv 28Jan2005               
   VRHFIN =Pd: 4p5s4d                                                           
   LEXCH  = PE                                                                  
   EATOM  =  2621.5550 eV,  192.6789 Ry                                         
                                                                                
   TITEL  = PAW_PBE Pd_pv 28Jan2005                                             
   LULTRA =        F    use ultrasoft PP ?                                      
   IUNSCR =        1    unscreen: 0-lin 1-nonlin 2-no                           
   RPACOR =    2.250    partial core radius                                     
   POMASS =  106.420; ZVAL   =   16.000    mass and valenz                      
   RCORE  =    2.400    outmost cutoff radius                                   
   RWIGS  =    2.300; RWIGS  =    1.217    wigner-seitz radius (au A)           
   ENMAX  =  250.925; ENMIN  =  188.194 eV                                      
   ICORE  =        3    local potential                                         
   LCOR   =        T    correct aug charges                                     
   LPAW   =        T    paw PP                                                  
   EAUG   =  473.067                                                            
   DEXC   =    0.000                                                            
   RMAX   =    2.449    core radius for proj-oper                               
   RAUG   =    1.300    factor for augmentation sphere                          
   RDEP   =    2.405    radius for radial grids                                 
   RDEPT  =    1.966    core radius for aug-charge                              
                                                                                
   Atomic configuration                                                         
   11 entries                                                                   
     n  l   j            E        occ.                                          
     1  0  0.50    -24164.6632   2.0000                                         
     2  0  0.50     -3530.9218   2.0000                                         
     2  1  1.50     -3165.6822   6.0000                                         
     3  0  0.50      -639.4578   2.0000                                         
     3  1  1.50      -519.4532   6.0000                                         
     3  2  2.50      -328.9758  10.0000                                         
     4  0  0.50       -88.7014   2.0000                                         
     4  1  1.50       -54.4541   6.0000                                         
     4  2  2.50        -6.6878   9.0000                                         
     5  0  0.50        -4.3543   1.0000                                         
     4  3  2.50        -1.3606   0.0000                                         
   Description                                                                  
     l       E           TYP  RCUT    TYP  RCUT                                 
     1    -54.4540524     23  2.100                                             
     1      4.0817478     23  2.100                                             
     2     -6.6878326     23  2.400                                             
     2     -4.0817478     23  2.400                                             
     0     -4.3542962     23  2.400                                             
     0     13.6058260     23  2.400                                             
     3     -5.4423304     23  2.400                                             
  local pseudopotential read in
  partial core-charges read in
  partial kinetic energy density read in
  atomic valenz-charges read in
  non local Contribution for L=           1  read in
    real space projection operators read in
  non local Contribution for L=           1  read in
    real space projection operators read in
  non local Contribution for L=           2  read in
    real space projection operators read in
  non local Contribution for L=           2  read in
    real space projection operators read in
  non local Contribution for L=           0  read in
    real space projection operators read in
  non local Contribution for L=           0  read in
    real space projection operators read in
    PAW grid and wavefunctions read in
 
   number of l-projection  operators is LMAX  =           6
   number of lm-projection operators is LMMAX =          18
 
 Optimization of the real space projectors (new method)

 maximal supplied QI-value         = 15.68
 optimisation between [QCUT,QGAM] = [  8.78, 17.72] = [ 21.60, 87.97] Ry 
 Optimized for a Real-space Cutoff    1.74 Angstroem

   l    n(q)    QCUT    max X(q) W(low)/X(q) W(high)/X(q)  e(spline) 
   1      9     8.783     3.357    0.98E-04    0.76E-04    0.17E-06
   1      9     8.783     4.938    0.21E-03    0.13E-03    0.38E-06
   2      8     8.783    23.508    0.21E-03    0.23E-03    0.36E-06
   2      8     8.783    23.349    0.20E-03    0.22E-03    0.34E-06
   0      9     8.783    49.920    0.63E-04    0.36E-04    0.14E-06
   0      9     8.783    23.997    0.53E-04    0.34E-04    0.12E-06
  PAW_PBE Pd_pv 28Jan2005               :
 energy of atom  1       EATOM=-2621.5550
 kinetic energy error for atom=    0.0975 (will be added to EATOM!!)
 
 
 POSCAR: Pd                                      
  positions in cartesian coordinates
  No initial velocities read in
 exchange correlation table for  LEXCH =        8
   RHO(1)=    0.500       N(1)  =     2000
   RHO(2)=  100.500       N(2)  =     4000
 


--------------------------------------------------------------------------------------------------------


 ion  position               nearest neighbor table
   1  0.009  0.009  0.000-  29 2.74  13 2.75  31 2.75  20 2.77  28 2.78  17 2.78  27 2.78   8 2.78
                            14 2.78   5 2.80   2 2.81   4 2.86
   2  0.016  0.266  0.250-   3 2.74  17 2.74   6 2.77  30 2.77  25 2.78  18 2.78   5 2.78  15 2.78
                            32 2.79   1 2.81  28 2.85  14 2.85
   3  0.009  0.509  0.500-  25 2.70   4 2.70   2 2.74   7 2.74  15 2.75  19 2.78  26 2.78  16 2.78
                             6 2.78  31 2.81  29 2.82  18 2.82
   4  0.994  0.744  0.750-  26 2.62  30 2.67  16 2.68  27 2.70   3 2.70   7 2.78  13 2.79  19 2.86
                             1 2.86  32 2.89   8 2.89
   5  0.264  0.014  0.250-  24 2.71  17 2.75   6 2.77  21 2.78   8 2.78  12 2.78   2 2.78  32 2.78
                            31 2.78   9 2.79   1 2.80  19 2.81
   6  0.264  0.264  0.500-   7 2.71  10 2.75   2 2.77   5 2.77  22 2.78  32 2.78   9 2.78   3 2.78
                            21 2.78  18 2.79  20 2.81  29 2.85
   7  0.251  0.501  0.750-  30 2.71   6 2.71  17 2.74   3 2.74  29 2.78  23 2.78  10 2.78   4 2.78
                            19 2.82  11 2.82  22 2.85   8 2.85
   8  0.264  0.764  0.000-  24 2.65  23 2.71  20 2.75  18 2.77   5 2.78  30 2.78  11 2.78   1 2.78
                            31 2.78  12 2.79   7 2.85   4 2.89
   9  0.516  0.016  0.500-  10 2.74  28 2.74  13 2.77  21 2.77  25 2.78  12 2.78  16 2.78   6 2.78
                             5 2.79  20 2.82  19 2.86  23 2.86
  10  0.509  0.259  0.750-   9 2.74  14 2.74   6 2.75  17 2.77  20 2.78  26 2.78  13 2.78   7 2.78
                            11 2.78  22 2.81  24 2.81  25 2.82
  11  0.509  0.509  0.000-  23 2.74  18 2.74  21 2.75  26 2.77  17 2.78  27 2.78   8 2.78  14 2.78
                            10 2.78  15 2.80  12 2.81   7 2.82
  12  0.516  0.766  0.250-  28 2.71  24 2.71  27 2.74  16 2.77  18 2.78   9 2.78  15 2.78   5 2.78
                             8 2.79  22 2.79  11 2.81  19 2.82
  13  0.764  0.014  0.750-  29 2.64  14 2.72   1 2.75   9 2.77  16 2.78  32 2.78  10 2.78   4 2.79
                            25 2.79  27 2.80  24 2.84  23 2.91
  14  0.752  0.252  0.000-  21 2.71  13 2.72  28 2.74  10 2.74  29 2.77  24 2.78  11 2.78   1 2.78
                            26 2.81  15 2.84   2 2.85  30 2.91
  15  0.764  0.514  0.250-   3 2.75  27 2.75  25 2.77  31 2.77  16 2.77  30 2.78  21 2.78   2 2.78
                            12 2.78  22 2.78  11 2.80  14 2.84
  16  0.764  0.764  0.500-   4 2.68  28 2.75  12 2.77  15 2.77  22 2.78  13 2.78  31 2.78  32 2.78
                             9 2.78   3 2.78  26 2.81  23 2.85
  17  0.259  0.259  0.000-   7 2.74   2 2.74   5 2.75  10 2.77   1 2.78  11 2.78  30 2.78  24 2.78
                            20 2.78  21 2.80  18 2.81  29 2.82
  18  0.266  0.516  0.250-  19 2.74  11 2.74  22 2.77   8 2.77   2 2.78  12 2.78  21 2.78  31 2.78
                            30 2.79   6 2.79  17 2.81   3 2.82
  19  0.259  0.759  0.500-  18 2.74  23 2.74  31 2.75   3 2.78  20 2.78  22 2.78  32 2.78   5 2.81
                             7 2.82  12 2.82   9 2.86   4 2.86
  20  0.259  0.009  0.750-  24 2.74   8 2.75  32 2.75   1 2.77  10 2.78  19 2.78  29 2.78  23 2.78
                            17 2.78   6 2.81   9 2.82
  21  0.514  0.264  0.250-  14 2.71  11 2.75   9 2.77  22 2.77  15 2.78   5 2.78  18 2.78  28 2.78
                             6 2.78  25 2.79  17 2.80  24 2.84
  22  0.514  0.514  0.500-  23 2.71  26 2.75  18 2.77  21 2.77   6 2.78  16 2.78  25 2.78  19 2.78
                            15 2.78  12 2.79  10 2.81   7 2.85
  23  0.501  0.751  0.750-   8 2.71  22 2.71  11 2.74  19 2.74   7 2.78  20 2.78  26 2.78  24 2.78
                            27 2.82  16 2.85   9 2.86  13 2.91
  24  0.502  0.002  0.000-   8 2.65  12 2.71   5 2.71  20 2.74  14 2.78  17 2.78  27 2.78  23 2.78
                            10 2.81  28 2.82  13 2.84  21 2.84
  25  0.766  0.266  0.500-   3 2.70  29 2.70  26 2.74  15 2.77   9 2.78   2 2.78  22 2.78  32 2.78
                            21 2.79  13 2.79  28 2.81  10 2.82
  26  0.759  0.509  0.750-   4 2.62  25 2.74  22 2.75  11 2.77  10 2.78   3 2.78  23 2.78  29 2.78
                            27 2.78  16 2.81  30 2.81  14 2.81
  27  0.759  0.759  0.000-   4 2.70  12 2.74  15 2.75   1 2.78  11 2.78  28 2.78  30 2.78  24 2.78
                            26 2.78  13 2.80  31 2.80  23 2.82
  28  0.759  0.009  0.250-  12 2.71  14 2.74   9 2.74  16 2.75   1 2.78  27 2.78  31 2.78  21 2.78
                            32 2.80  25 2.81  24 2.82   2 2.85
  29  0.001  0.251  0.750-  13 2.64  25 2.70  32 2.71   1 2.74  14 2.77   7 2.78  26 2.78  20 2.78
                             3 2.82  17 2.82   6 2.85  30 2.85
  30  0.014  0.514  0.000-   4 2.67   7 2.71   2 2.77  31 2.77  15 2.78   8 2.78  27 2.78  17 2.78
                            18 2.79  26 2.81  29 2.85  14 2.91
  31  0.014  0.764  0.250-  19 2.75   1 2.75  15 2.77  30 2.77  16 2.78  32 2.78  18 2.78  28 2.78
                             8 2.78   5 2.78  27 2.80   3 2.81
  32  0.014  0.014  0.500-  29 2.71  20 2.75  16 2.78   6 2.78  13 2.78  31 2.78  25 2.78  19 2.78
                             5 2.78   2 2.79  28 2.80   4 2.89
 

IMPORTANT INFORMATION: All symmetrisations will be switched off!
NOSYMM: (Re-)initialisation of all symmetry stuff for point group C_1.

 
 
 KPOINTS: Server version 2017.10.18. K-point grid 
  k-points in reciprocal lattice
Space group operators:
 irot       det(A)        alpha          n_x          n_y          n_z        tau_x        tau_y        tau_z
    1     1.000000     0.000000     1.000000     0.000000     0.000000     0.000000     0.000000     0.000000


--------------------------------------------------------------------------------------------------------




 Dimension of arrays:
   k-points           NKPTS =     24   k-points in BZ     NKDIM =     24   number of bands    NBANDS=    307
   number of dos      NEDOS =    301   number of ions     NIONS =     32
   non local maximal  LDIM  =      6   non local SUM 2l+1 LMDIM =     18
   total plane-waves  NPLWV = 110592
   max r-space proj   IRMAX =   5103   max aug-charges    IRDMAX=   9337
   dimension x,y,z NGX =    48 NGY =   48 NGZ =   48
   dimension x,y,z NGXF=    96 NGYF=   96 NGZF=   96
   support grid    NGXF=    96 NGYF=   96 NGZF=   96
   ions per type =              32
 NGX,Y,Z   is equivalent  to a cutoff of  10.16, 10.16, 10.16 a.u.
 NGXF,Y,Z  is equivalent  to a cutoff of  20.32, 20.32, 20.32 a.u.


 I would recommend the setting:
   dimension x,y,z NGX =    44 NGY =   44 NGZ =   44
 SYSTEM =  unknown system                          
 POSCAR =  Pd                                      

 Startparameter for this run:
   NWRITE =      2    write-flag & timer
   PREC   = a         normal or accurate (medium, high low for compatibility)
   ISTART =      0    job   : 0-new  1-cont  2-samecut
   ICHARG =      2    charge: 1-file 2-atom 10-const
   ISPIN  =      1    spin polarized calculation?
   LNONCOLLINEAR =      F non collinear calculations
   LSORBIT =      F    spin-orbit coupling
   INIWAV =      1    electr: 0-lowe 1-rand  2-diag
   LASPH  =      F    aspherical Exc in radial PAW
   METAGGA=      F    non-selfconsistent MetaGGA calc.

 Electronic Relaxation 1
   ENCUT  =  300.0 eV  22.05 Ry    4.70 a.u.  11.09 11.09 11.09*2*pi/ulx,y,z
   ENINI  =  300.0     initial cutoff
   ENAUG  =  473.1 eV  augmentation charge cutoff
   NELM   =     60;   NELMIN=  2; NELMDL= -5     # of ELM steps 
   EDIFF  = 0.1E-04   stopping-criterion for ELM
   LREAL  =      T    real-space projection
   NLSPLINE    = F    spline interpolate recip. space projectors
   LCOMPAT=      F    compatible to vasp.4.4
   GGA_COMPAT  = T    GGA compatible to vasp.4.4-vasp.4.6
   LMAXPAW     = -100 max onsite density
   LMAXMIX     =    2 max onsite mixed and CHGCAR
   VOSKOWN=      0    Vosko Wilk Nusair interpolation
   ROPT   =   -0.00025
 Ionic relaxation
   EDIFFG = 0.1E-03   stopping-criterion for IOM
   NSW    =      0    number of steps for IOM
   NBLOCK =      1;   KBLOCK =      1    inner block; outer block 
   IBRION =     -1    ionic relax: 0-MD 1-quasi-New 2-CG
   NFREE  =      0    steps in history (QN), initial steepest desc. (CG)
   ISIF   =      2    stress and relaxation
   IWAVPR =      0    prediction:  0-non 1-charg 2-wave 3-comb
   ISYM   =      0    0-nonsym 1-usesym 2-fastsym
   LCORR  =      T    Harris-Foulkes like correction to forces

   POTIM  = 0.5000    time-step for ionic-motion
   TEIN   =    0.0    initial temperature
   TEBEG  =    0.0;   TEEND  =   0.0 temperature during run
   SMASS  =  -3.00    Nose mass-parameter (am)
   estimated Nose-frequenzy (Omega)   =  0.10E-29 period in steps =****** mass=  -0.141E-26a.u.
   SCALEE = 1.0000    scale energy and forces
   NPACO  =    256;   APACO  = 16.0  distance and # of slots for P.C.
   PSTRESS=    0.0 pullay stress

  Mass of Ions in am
   POMASS = 106.42
  Ionic Valenz
   ZVAL   =  16.00
  Atomic Wigner-Seitz radii
   RWIGS  =  -1.00
  virtual crystal weights 
   VCA    =   1.00
   NELECT =     512.0000    total number of electrons
   NUPDOWN=      -1.0000    fix difference up-down

 DOS related values:
   EMIN   =  10.00;   EMAX   =-10.00  energy-range for DOS
   EFERMI =   0.00
   ISMEAR =     1;   SIGMA  =   0.10  broadening in eV -4-tet -1-fermi 0-gaus

 Electronic relaxation 2 (details)
   IALGO  =     38    algorithm
   LDIAG  =      T    sub-space diagonalisation (order eigenvalues)
   LSUBROT=      T    optimize rotation matrix (better conditioning)
   TURBO    =      0    0=normal 1=particle mesh
   IRESTART =      0    0=no restart 2=restart with 2 vectors
   NREBOOT  =      0    no. of reboots
   NMIN     =      0    reboot dimension
   EREF     =   0.00    reference energy to select bands
   IMIX   =      4    mixing-type and parameters
     AMIX     =   0.40;   BMIX     =  1.00
     AMIX_MAG =   1.60;   BMIX_MAG =  1.00
     AMIN     =   0.10
     WC   =   100.;   INIMIX=   1;  MIXPRE=   1;  MAXMIX= -45

 Intra band minimization:
   WEIMIN = 0.0000     energy-eigenvalue tresh-hold
   EBREAK =  0.81E-08  absolut break condition
   DEPER  =   0.30     relativ break condition  

   TIME   =   0.40     timestep for ELM

  volume/ion in A,a.u.               =      15.14       102.17
  Fermi-wavevector in a.u.,A,eV,Ry     =   1.667531  3.151177 37.833172  2.780660
  Thomas-Fermi vector in A             =   2.753537
 
 Write flags
   LWAVE  =      F    write WAVECAR
   LCHARG =      T    write CHGCAR
   LVTOT  =      F    write LOCPOT, total local potential
   LVHAR  =      F    write LOCPOT, Hartree potential only
   LELF   =      F    write electronic localiz. function (ELF)
   LORBIT =      0    0 simple, 1 ext, 2 COOP (PROOUT)


 Dipole corrections
   LMONO  =      F    monopole corrections only (constant potential shift)
   LDIPOL =      F    correct potential (dipole corrections)
   IDIPOL =      0    1-x, 2-y, 3-z, 4-all directions 
   EPSILON=  1.0000000 bulk dielectric constant

 Exchange correlation treatment:
   GGA     =    --    GGA type
   LEXCH   =     8    internal setting for exchange type
   VOSKOWN=      0    Vosko Wilk Nusair interpolation
   LHFCALC =     F    Hartree Fock is set to
   LHFONE  =     F    Hartree Fock one center treatment
   AEXX    =    0.0000 exact exchange contribution

 Linear response parameters
   LEPSILON=     F    determine dielectric tensor
   LRPA    =     F    only Hartree local field effects (RPA)
   LNABLA  =     F    use nabla operator in PAW spheres
   LVEL    =     F    velocity operator in full k-point grid
   LINTERFAST=   F  fast interpolation
   KINTER  =     0    interpolate to denser k-point grid
   CSHIFT  =0.1000    complex shift for real part using Kramers Kronig
   OMEGAMAX=  -1.0    maximum frequency
   DEG_THRESHOLD= 0.2000000E-02 threshold for treating states as degnerate
   RTIME   =    0.100 relaxation time in fs

 Orbital magnetization related:
   ORBITALMAG=     F  switch on orbital magnetization
   LCHIMAG   =     F  perturbation theory with respect to B field
   DQ        =  0.001000  dq finite difference perturbation B field



--------------------------------------------------------------------------------------------------------


 Static calculation
 charge density and potential will be updated during run
 non-spin polarized calculation
 Variant of blocked Davidson
 Davidson routine will perform the subspace rotation
 perform sub-space diagonalisation
    after iterative eigenvector-optimisation
 modified Broyden-mixing scheme, WC =      100.0
 initial mixing is a Kerker type mixing with AMIX =  0.4000 and BMIX =      1.0000
 Hartree-type preconditioning will be used
 using additional bands           51
 real space projection scheme for non local part
 use partial core corrections
 calculate Harris-corrections to forces 
   (improved forces if not selfconsistent)
 use gradient corrections 
 use of overlap-Matrix (Vanderbilt PP)
 Methfessel and Paxton  Order N= 1 SIGMA  =   0.10


--------------------------------------------------------------------------------------------------------


  energy-cutoff  :      300.00
  volume of cell :      484.48
      direct lattice vectors                 reciprocal lattice vectors
     7.854000000 -0.000000000 -0.000000000     0.127323657  0.000000000 -0.000000000
    -0.000000000  7.854000000  0.000000000     0.000000000  0.127323657 -0.000000000
     0.000000000  0.000000000  7.854000000     0.000000000 -0.000000000  0.127323657

  length of vectors
     7.854000000  7.854000000  7.854000000     0.127323657  0.127323657  0.127323657


 
 k-points in units of 2pi/SCALE and weight: Server version 2017.10.18. K-point grid 
   0.03183091  0.01591546  0.11671335       0.042
   0.06366183  0.01591546  0.09549274       0.042
   0.09549274  0.01591546  0.07427213       0.042
   0.00000000  0.01591546  0.05305152       0.042
   0.03183091  0.01591546  0.03183091       0.042
   0.06366183  0.01591546  0.01061030       0.042
   0.09549274  0.01591546  0.11671335       0.042
   0.00000000  0.01591546  0.09549274       0.042
   0.03183091  0.01591546  0.07427213       0.042
   0.06366183  0.01591546  0.05305152       0.042
   0.09549274  0.01591546  0.03183091       0.042
   0.00000000  0.01591546  0.01061030       0.042
   0.03183091  0.04774637  0.09549274       0.042
   0.06366183  0.04774637  0.07427213       0.042
   0.09549274  0.04774637  0.05305152       0.042
   0.00000000  0.04774637  0.03183091       0.042
   0.03183091  0.04774637  0.01061030       0.042
   0.06366183  0.04774637  0.11671335       0.042
   0.09549274  0.04774637  0.09549274       0.042
   0.00000000  0.04774637  0.07427213       0.042
   0.03183091  0.04774637  0.05305152       0.042
   0.06366183  0.04774637  0.03183091       0.042
   0.09549274  0.04774637  0.01061030       0.042
   0.00000000  0.04774637  0.11671335       0.042
 
 k-points in reciprocal lattice and weights: Server version 2017.10.18. K-point grid 
   0.25000000  0.12500000  0.91666667       0.042
   0.50000000  0.12500000  0.75000000       0.042
   0.75000000  0.12500000  0.58333333       0.042
   0.00000000  0.12500000  0.41666667       0.042
   0.25000000  0.12500000  0.25000000       0.042
   0.50000000  0.12500000  0.08333333       0.042
   0.75000000  0.12500000  0.91666667       0.042
   0.00000000  0.12500000  0.75000000       0.042
   0.25000000  0.12500000  0.58333333       0.042
   0.50000000  0.12500000  0.41666667       0.042
   0.75000000  0.12500000  0.25000000       0.042
   0.00000000  0.12500000  0.08333333       0.042
   0.25000000  0.37500000  0.75000000       0.042
   0.50000000  0.37500000  0.58333333       0.042
   0.75000000  0.37500000  0.41666667       0.042
   0.00000000  0.37500000  0.25000000       0.042
   0.25000000  0.37500000  0.08333333       0.042
   0.50000000  0.37500000  0.91666667       0.042
   0.75000000  0.37500000  0.75000000       0.042
   0.00000000  0.37500000  0.58333333       0.042
   0.25000000  0.37500000  0.41666667       0.042
   0.50000000  0.37500000  0.25000000       0.042
   0.75000000  0.37500000  0.08333333       0.042
   0.00000000  0.37500000  0.91666667       0.042
 
 position of ions in fractional coordinates (direct lattice) 
   0.00917270  0.00917270  0.00000000
   0.01556080  0.26556080  0.25000000
   0.00850637  0.50850637  0.50000000
   0.99410354  0.74410354  0.75000000
   0.26396653  0.01396653  0.25000000
   0.26359027  0.26359027  0.50000000
   0.25147377  0.50147377  0.75000000
   0.26396653  0.76396653  0.00000000
   0.51556080  0.01556080  0.50000000
   0.50850637  0.25850637  0.75000000
   0.50917270  0.50917270  0.00000000
   0.51556080  0.76556080  0.25000000
   0.76359027  0.01359027  0.75000000
   0.75227751  0.25227751  0.00000000
   0.76396653  0.51396653  0.25000000
   0.76359027  0.76359027  0.50000000
   0.25917270  0.25917270  0.00000000
   0.26556080  0.51556080  0.25000000
   0.25850637  0.75850637  0.50000000
   0.25850637  0.00850637  0.75000000
   0.51396653  0.26396653  0.25000000
   0.51359027  0.51359027  0.50000000
   0.50147377  0.75147377  0.75000000
   0.50227751  0.00227751  0.00000000
   0.76556080  0.26556080  0.50000000
   0.75850637  0.50850637  0.75000000
   0.75917270  0.75917270  0.00000000
   0.75917270  0.00917270  0.25000000
   0.00147377  0.25147377  0.75000000
   0.01396653  0.51396653  0.00000000
   0.01359027  0.76359027  0.25000000
   0.01359027  0.01359027  0.50000000
 
 position of ions in cartesian coordinates  (Angst):
   0.07204237  0.07204237  0.00000000
   0.12221450  2.08571450  1.96350000
   0.06680907  3.99380907  3.92700000
   7.80768922  5.84418922  5.89050000
   2.07319313  0.10969313  1.96350000
   2.07023798  2.07023798  3.92700000
   1.97507499  3.93857499  5.89050000
   2.07319313  6.00019313  0.00000000
   4.04921450  0.12221450  3.92700000
   3.99380907  2.03030907  5.89050000
   3.99904237  3.99904237  0.00000000
   4.04921450  6.01271450  1.96350000
   5.99723798  0.10673798  5.89050000
   5.90838757  1.98138757 -0.00000000
   6.00019313  4.03669313  1.96350000
   5.99723798  5.99723798  3.92700000
   2.03554237  2.03554237  0.00000000
   2.08571450  4.04921450  1.96350000
   2.03030907  5.95730907  3.92700000
   2.03030907  0.06680907  5.89050000
   4.03669313  2.07319313  1.96350000
   4.03373798  4.03373798  3.92700000
   3.93857499  5.90207499  5.89050000
   3.94488757  0.01788757 -0.00000000
   6.01271450  2.08571450  3.92700000
   5.95730907  3.99380907  5.89050000
   5.96254237  5.96254237  0.00000000
   5.96254237  0.07204237  1.96350000
   0.01157499  1.97507499  5.89050000
   0.10969313  4.03669313  0.00000000
   0.10673798  5.99723798  1.96350000
   0.10673798  0.10673798  3.92700000
 


--------------------------------------------------------------------------------------------------------


 k-point  1 :   0.2500 0.1250 0.9167  plane waves:    5707
 k-point  2 :   0.5000 0.1250 0.7500  plane waves:    5710
 k-point  3 :   0.7500 0.1250 0.5833  plane waves:    5715
 k-point  4 :   0.0000 0.1250 0.4167  plane waves:    5721
 k-point  5 :   0.2500 0.1250 0.2500  plane waves:    5714
 k-point  6 :   0.5000 0.1250 0.0833  plane waves:    5712
 k-point  7 :   0.7500 0.1250 0.9167  plane waves:    5707
 k-point  8 :   0.0000 0.1250 0.7500  plane waves:    5709
 k-point  9 :   0.2500 0.1250 0.5833  plane waves:    5715
 k-point 10 :   0.5000 0.1250 0.4167  plane waves:    5718
 k-point 11 :   0.7500 0.1250 0.2500  plane waves:    5714
 k-point 12 :   0.0000 0.1250 0.0833  plane waves:    5703
 k-point 13 :   0.2500 0.3750 0.7500  plane waves:    5726
 k-point 14 :   0.5000 0.3750 0.5833  plane waves:    5738
 k-point 15 :   0.7500 0.3750 0.4167  plane waves:    5731
 k-point 16 :   0.0000 0.3750 0.2500  plane waves:    5721
 k-point 17 :   0.2500 0.3750 0.0833  plane waves:    5713
 k-point 18 :   0.5000 0.3750 0.9167  plane waves:    5716
 k-point 19 :   0.7500 0.3750 0.7500  plane waves:    5726
 k-point 20 :   0.0000 0.3750 0.5833  plane waves:    5702
 k-point 21 :   0.2500 0.3750 0.4167  plane waves:    5731
 k-point 22 :   0.5000 0.3750 0.2500  plane waves:    5728
 k-point 23 :   0.7500 0.3750 0.0833  plane waves:    5713
 k-point 24 :   0.0000 0.3750 0.9167  plane waves:    5709

 maximum number of plane-waves:      5738
 maximum index in each direction: 
   IXMAX=   11   IYMAX=   10   IZMAX=   11
   IXMIN=  -11   IYMIN=  -11   IZMIN=  -12

 NGX is ok and might be reduce to  46
 NGY is ok and might be reduce to  44
 NGZ is ok and might be reduce to  48

 total amount of memory used by VASP on root node   849986. kBytes
========================================================================

   base      :      30000. kBytes
   nonlr-proj:      27628. kBytes
   grid      :      47517. kBytes
   one-center:        497. kBytes
   wavefun   :     744344. kBytes
 
 For storing wavefunctions  673.92 MBYTES are necessary
 For predicting wavefunctions   69.67 MBYTES are necessary
 Broyden mixing: mesh for mixing (old mesh)
   NGX = 23   NGY = 23   NGZ = 23
  (NGX  = 96   NGY  = 96   NGZ  = 96)
  gives a total of  12167 points

 initial charge density was supplied:
 charge density of overlapping atoms calculated
 number of electron     512.0000000 magnetization 
 keeping initial charge density in first step


--------------------------------------------------------------------------------------------------------


 Maximum index for non-local projection operator         4919
 Maximum index for augmentation-charges         8902 (set IRDMAX)


--------------------------------------------------------------------------------------------------------


 First call to EWALD:  gamma=   0.226
 Maximum number of real-space cells 3x 3x 3
 Maximum number of reciprocal cells 3x 3x 3

    FEWALD:  cpu time    0.01: real time    0.01


----------------------------------------- Iteration    1(   1)  ---------------------------------------


    POTLOK:  cpu time    0.93: real time    0.93
    SETDIJ:  cpu time    0.16: real time    0.16
     EDDAV:  cpu time  741.41: real time  741.61
       DOS:  cpu time    0.04: real time    0.04
    --------------------------------------------
      LOOP:  cpu time  742.53: real time  742.74

 eigenvalue-minimisations  : 16000
 total energy-change (2. order) : 0.5594969E+04  (-0.2280679E+05)
 number of electron     512.0000000 magnetization 
 augmentation part      512.0000000 magnetization 

 Free energy of the ion-electron system (eV)
  ---------------------------------------------------
  alpha Z        PSCENC =      4309.77481446
  Ewald energy   TEWEN  =    -68825.33419380
  -1/2 Hartree   DENC   =    -17930.59218716
  -exchange  EXHF       =         0.00000000
  -V(xc)+E(xc)   XCENC  =      2649.17785873
  PAW double counting   =     72255.69020719   -71333.34611920
  entropy T*S    EENTRO =        -0.00359998
  eigenvalues    EBANDS =       582.96063289
  atomic energy  EATOM  =     83886.64112113
  ---------------------------------------------------
  free energy    TOTEN  =      5594.96853425 eV

  energy without entropy =     5594.97213424  energy(sigma->0) =     5594.96973425


--------------------------------------------------------------------------------------------------------




----------------------------------------- Iteration    1(   2)  ---------------------------------------


     EDDAV:  cpu time  711.72: real time  711.88
       DOS:  cpu time    0.04: real time    0.04
    --------------------------------------------
      LOOP:  cpu time  711.76: real time  711.96

 eigenvalue-minimisations  : 15189
 total energy-change (2. order) :-0.5434172E+04  (-0.5266864E+04)
 number of electron     512.0000000 magnetization 
 augmentation part      512.0000000 magnetization 

 Free energy of the ion-electron system (eV)
  ---------------------------------------------------
  alpha Z        PSCENC =      4309.77481446
  Ewald energy   TEWEN  =    -68825.33419380
  -1/2 Hartree   DENC   =    -17930.59218716
  -exchange  EXHF       =         0.00000000
  -V(xc)+E(xc)   XCENC  =      2649.17785873
  PAW double counting   =     72255.69020719   -71333.34611920
  entropy T*S    EENTRO =         0.00438165
  eigenvalues    EBANDS =     -4851.21980518
  atomic energy  EATOM  =     83886.64112113
  ---------------------------------------------------
  free energy    TOTEN  =       160.79607783 eV

  energy without entropy =      160.79169617  energy(sigma->0) =      160.79461727


--------------------------------------------------------------------------------------------------------




----------------------------------------- Iteration    1(   3)  ---------------------------------------


     EDDAV:  cpu time  731.32: real time  731.50
       DOS:  cpu time    0.04: real time    0.04
    --------------------------------------------
      LOOP:  cpu time  731.37: real time  731.55

 eigenvalue-minimisations  : 15632
 total energy-change (2. order) :-0.3266104E+03  (-0.2956736E+03)
 number of electron     512.0000000 magnetization 
 augmentation part      512.0000000 magnetization 

 Free energy of the ion-electron system (eV)
  ---------------------------------------------------
  alpha Z        PSCENC =      4309.77481446
  Ewald energy   TEWEN  =    -68825.33419380
  -1/2 Hartree   DENC   =    -17930.59218716
  -exchange  EXHF       =         0.00000000
  -V(xc)+E(xc)   XCENC  =      2649.17785873
  PAW double counting   =     72255.69020719   -71333.34611920
  entropy T*S    EENTRO =        -0.00098151
  eigenvalues    EBANDS =     -5177.82483639
  atomic energy  EATOM  =     83886.64112113
  ---------------------------------------------------
  free energy    TOTEN  =      -165.81431654 eV

  energy without entropy =     -165.81333504  energy(sigma->0) =     -165.81398937


--------------------------------------------------------------------------------------------------------




----------------------------------------- Iteration    1(   4)  ---------------------------------------


     EDDAV:  cpu time  723.47: real time  723.63
       DOS:  cpu time    0.04: real time    0.04
    --------------------------------------------
      LOOP:  cpu time  723.51: real time  723.68

 eigenvalue-minimisations  : 15517
 total energy-change (2. order) :-0.8518530E+01  (-0.8438082E+01)
 number of electron     512.0000000 magnetization 
 augmentation part      512.0000000 magnetization 

 Free energy of the ion-electron system (eV)
  ---------------------------------------------------
  alpha Z        PSCENC =      4309.77481446
  Ewald energy   TEWEN  =    -68825.33419380
  -1/2 Hartree   DENC   =    -17930.59218716
  -exchange  EXHF       =         0.00000000
  -V(xc)+E(xc)   XCENC  =      2649.17785873
  PAW double counting   =     72255.69020719   -71333.34611920
  entropy T*S    EENTRO =        -0.00324576
  eigenvalues    EBANDS =     -5186.34110241
  atomic energy  EATOM  =     83886.64112113
  ---------------------------------------------------
  free energy    TOTEN  =      -174.33284682 eV

  energy without entropy =     -174.32960106  energy(sigma->0) =     -174.33176490


--------------------------------------------------------------------------------------------------------




----------------------------------------- Iteration    1(   5)  ---------------------------------------


     EDDAV:  cpu time  723.99: real time  724.20
       DOS:  cpu time    0.04: real time    0.04
    CHARGE:  cpu time   45.79: real time   45.80
    MIXING:  cpu time    0.02: real time    0.02
    --------------------------------------------
      LOOP:  cpu time  769.84: real time  770.07

 eigenvalue-minimisations  : 15512
 total energy-change (2. order) :-0.8325074E-01  (-0.8322316E-01)
 number of electron     511.9999689 magnetization 
 augmentation part      239.1056559 magnetization 

 Broyden mixing:
  rms(total) = 0.26699E+01    rms(broyden)= 0.26665E+01
  rms(prec ) = 0.33936E+01
  weight for this iteration     100.00

 Free energy of the ion-electron system (eV)
  ---------------------------------------------------
  alpha Z        PSCENC =      4309.77481446
  Ewald energy   TEWEN  =    -68825.33419380
  -1/2 Hartree   DENC   =    -17930.59218716
  -exchange  EXHF       =         0.00000000
  -V(xc)+E(xc)   XCENC  =      2649.17785873
  PAW double counting   =     72255.69020719   -71333.34611920
  entropy T*S    EENTRO =        -0.00327890
  eigenvalues    EBANDS =     -5186.42432001
  atomic energy  EATOM  =     83886.64112113
  ---------------------------------------------------
  free energy    TOTEN  =      -174.41609756 eV

  energy without entropy =     -174.41281866  energy(sigma->0) =     -174.41500459


--------------------------------------------------------------------------------------------------------




----------------------------------------- Iteration    1(   6)  ---------------------------------------


    POTLOK:  cpu time    0.95: real time    0.95
    SETDIJ:  cpu time    0.17: real time    0.18
     EDDAV:  cpu time  716.11: real time  716.30
       DOS:  cpu time    0.04: real time    0.04
    CHARGE:  cpu time   45.43: real time   45.47
    MIXING:  cpu time    0.02: real time    0.02
    --------------------------------------------
      LOOP:  cpu time  762.73: real time  762.95

 eigenvalue-minimisations  : 15389
 total energy-change (2. order) : 0.7928345E+01  (-0.3007145E+01)
 number of electron     511.9999684 magnetization 
 augmentation part      245.3889503 magnetization 

 Broyden mixing:
  rms(total) = 0.58982E+00    rms(broyden)= 0.58970E+00
  rms(prec ) = 0.65325E+00
  weight for this iteration     100.00

 eigenvalues of (default mixing * dielectric matrix)
  average eigenvalue GAMMA=   1.1200
  1.1200

 Free energy of the ion-electron system (eV)
  ---------------------------------------------------
  alpha Z        PSCENC =      4309.77481446
  Ewald energy   TEWEN  =    -68825.33419380
  -1/2 Hartree   DENC   =    -17394.47944520
  -exchange  EXHF       =         0.00000000
  -V(xc)+E(xc)   XCENC  =      2625.73253242
  PAW double counting   =     73883.56345942   -73023.20856821
  entropy T*S    EENTRO =         0.00604540
  eigenvalues    EBANDS =     -5629.18351851
  atomic energy  EATOM  =     83886.64112113
  ---------------------------------------------------
  free energy    TOTEN  =      -166.48775290 eV

  energy without entropy =     -166.49379829  energy(sigma->0) =     -166.48976803


--------------------------------------------------------------------------------------------------------




----------------------------------------- Iteration    1(   7)  ---------------------------------------


    POTLOK:  cpu time    0.94: real time    0.94
    SETDIJ:  cpu time    0.17: real time    0.17
     EDDAV:  cpu time  719.17: real time  719.33
       DOS:  cpu time    0.04: real time    0.04
    CHARGE:  cpu time   45.67: real time   45.68
    MIXING:  cpu time    0.02: real time    0.02
    --------------------------------------------
      LOOP:  cpu time  766.02: real time  766.19

 eigenvalue-minimisations  : 15488
 total energy-change (2. order) : 0.2471644E-01  (-0.5026257E-01)
 number of electron     511.9999685 magnetization 
 augmentation part      245.2951940 magnetization 

 Broyden mixing:
  rms(total) = 0.47679E+00    rms(broyden)= 0.47649E+00
  rms(prec ) = 0.77030E+00
  weight for this iteration     100.00

 eigenvalues of (default mixing * dielectric matrix)
  average eigenvalue GAMMA=   0.9591
  1.2683  0.6498

 Free energy of the ion-electron system (eV)
  ---------------------------------------------------
  alpha Z        PSCENC =      4309.77481446
  Ewald energy   TEWEN  =    -68825.33419380
  -1/2 Hartree   DENC   =    -17383.26750934
  -exchange  EXHF       =         0.00000000
  -V(xc)+E(xc)   XCENC  =      2625.15369109
  PAW double counting   =     74887.19713345   -74039.64187364
  entropy T*S    EENTRO =         0.00331419
  eigenvalues    EBANDS =     -5626.98953398
  atomic energy  EATOM  =     83886.64112113
  ---------------------------------------------------
  free energy    TOTEN  =      -166.46303646 eV

  energy without entropy =     -166.46635064  energy(sigma->0) =     -166.46414118


--------------------------------------------------------------------------------------------------------




----------------------------------------- Iteration    1(   8)  ---------------------------------------


    POTLOK:  cpu time    0.94: real time    0.94
    SETDIJ:  cpu time    0.17: real time    0.17
     EDDAV:  cpu time  745.90: real time  746.07
       DOS:  cpu time    0.04: real time    0.04
    CHARGE:  cpu time   45.45: real time   45.46
    MIXING:  cpu time    0.02: real time    0.02
    --------------------------------------------
      LOOP:  cpu time  792.52: real time  792.71

 eigenvalue-minimisations  : 16261
 total energy-change (2. order) : 0.4069830E-01  (-0.6670347E-01)
 number of electron     511.9999684 magnetization 
 augmentation part      245.2941493 magnetization 

 Broyden mixing:
  rms(total) = 0.40375E+00    rms(broyden)= 0.40304E+00
  rms(prec ) = 0.67057E+00
  weight for this iteration     100.00

 eigenvalues of (default mixing * dielectric matrix)
  average eigenvalue GAMMA=   1.2103
  2.4518  0.9773  0.2018

 Free energy of the ion-electron system (eV)
  ---------------------------------------------------
  alpha Z        PSCENC =      4309.77481446
  Ewald energy   TEWEN  =    -68825.33419380
  -1/2 Hartree   DENC   =    -17378.28228821
  -exchange  EXHF       =         0.00000000
  -V(xc)+E(xc)   XCENC  =      2624.92816303
  PAW double counting   =     75128.88178660   -74284.02206692
  entropy T*S    EENTRO =         0.00530460
  eigenvalues    EBANDS =     -5629.01497905
  atomic energy  EATOM  =     83886.64112113
  ---------------------------------------------------
  free energy    TOTEN  =      -166.42233815 eV

  energy without entropy =     -166.42764275  energy(sigma->0) =     -166.42410635


--------------------------------------------------------------------------------------------------------




----------------------------------------- Iteration    1(   9)  ---------------------------------------


    POTLOK:  cpu time    0.94: real time    0.94
    SETDIJ:  cpu time    0.17: real time    0.17
     EDDAV:  cpu time  722.06: real time  722.25
       DOS:  cpu time    0.04: real time    0.04
    CHARGE:  cpu time   45.52: real time   45.53
    MIXING:  cpu time    0.02: real time    0.02
    --------------------------------------------
      LOOP:  cpu time  768.76: real time  768.99

 eigenvalue-minimisations  : 15536
 total energy-change (2. order) : 0.4447806E-01  (-0.3500314E-01)
 number of electron     511.9999684 magnetization 
 augmentation part      245.3145293 magnetization 

 Broyden mixing:
  rms(total) = 0.26146E+00    rms(broyden)= 0.26104E+00
  rms(prec ) = 0.49527E+00
  weight for this iteration     100.00

 eigenvalues of (default mixing * dielectric matrix)
  average eigenvalue GAMMA=   0.9878
  2.5300  0.9813  0.1968  0.2429

 Free energy of the ion-electron system (eV)
  ---------------------------------------------------
  alpha Z        PSCENC =      4309.77481446
  Ewald energy   TEWEN  =    -68825.33419380
  -1/2 Hartree   DENC   =    -17357.38258099
  -exchange  EXHF       =         0.00000000
  -V(xc)+E(xc)   XCENC  =      2623.96148865
  PAW double counting   =     76176.03082815   -75342.45976849
  entropy T*S    EENTRO =         0.00666696
  eigenvalues    EBANDS =     -5637.61623616
  atomic energy  EATOM  =     83886.64112113
  ---------------------------------------------------
  free energy    TOTEN  =      -166.37786009 eV

  energy without entropy =     -166.38452705  energy(sigma->0) =     -166.38008241


--------------------------------------------------------------------------------------------------------




----------------------------------------- Iteration    1(  10)  ---------------------------------------


    POTLOK:  cpu time    0.94: real time    0.94
    SETDIJ:  cpu time    0.17: real time    0.17
     EDDAV:  cpu time  720.43: real time  720.61
       DOS:  cpu time    0.04: real time    0.04
    CHARGE:  cpu time   45.44: real time   45.45
    MIXING:  cpu time    0.02: real time    0.02
    --------------------------------------------
      LOOP:  cpu time  767.04: real time  767.23

 eigenvalue-minimisations  : 15477
 total energy-change (2. order) : 0.7543783E-01  (-0.1493543E-01)
 number of electron     511.9999684 magnetization 
 augmentation part      245.3086143 magnetization 

 Broyden mixing:
  rms(total) = 0.41371E-01    rms(broyden)= 0.40473E-01
  rms(prec ) = 0.76489E-01
  weight for this iteration     100.00

 eigenvalues of (default mixing * dielectric matrix)
  average eigenvalue GAMMA=   0.8532
  2.5286  0.9810  0.2833  0.2833  0.1898

 Free energy of the ion-electron system (eV)
  ---------------------------------------------------
  alpha Z        PSCENC =      4309.77481446
  Ewald energy   TEWEN  =    -68825.33419380
  -1/2 Hartree   DENC   =    -17354.71934381
  -exchange  EXHF       =         0.00000000
  -V(xc)+E(xc)   XCENC  =      2623.83599977
  PAW double counting   =     76320.90386989   -75488.55767016
  entropy T*S    EENTRO =         0.00681996
  eigenvalues    EBANDS =     -5638.85383969
  atomic energy  EATOM  =     83886.64112113
  ---------------------------------------------------
  free energy    TOTEN  =      -166.30242226 eV

  energy without entropy =     -166.30924222  energy(sigma->0) =     -166.30469558


--------------------------------------------------------------------------------------------------------




----------------------------------------- Iteration    1(  11)  ---------------------------------------


    POTLOK:  cpu time    0.94: real time    0.94
    SETDIJ:  cpu time    0.17: real time    0.17
     EDDAV:  cpu time  717.65: real time  717.81
       DOS:  cpu time    0.04: real time    0.04
    CHARGE:  cpu time   45.52: real time   45.53
    MIXING:  cpu time    0.02: real time    0.02
    --------------------------------------------
      LOOP:  cpu time  764.34: real time  764.52

 eigenvalue-minimisations  : 15416
 total energy-change (2. order) : 0.3609312E-03  (-0.1688061E-02)
 number of electron     511.9999684 magnetization 
 augmentation part      245.3055478 magnetization 

 Broyden mixing:
  rms(total) = 0.18390E-01    rms(broyden)= 0.18248E-01
  rms(prec ) = 0.35525E-01
  weight for this iteration     100.00

 eigenvalues of (default mixing * dielectric matrix)
  average eigenvalue GAMMA=   0.8152
  2.5203  0.9773  0.7249  0.2683  0.1921  0.2085

 Free energy of the ion-electron system (eV)
  ---------------------------------------------------
  alpha Z        PSCENC =      4309.77481446
  Ewald energy   TEWEN  =    -68825.33419380
  -1/2 Hartree   DENC   =    -17354.73305671
  -exchange  EXHF       =         0.00000000
  -V(xc)+E(xc)   XCENC  =      2623.83664295
  PAW double counting   =     76327.94432915   -75495.26616527
  entropy T*S    EENTRO =         0.00653584
  eigenvalues    EBANDS =     -5639.17208908
  atomic energy  EATOM  =     83886.64112113
  ---------------------------------------------------
  free energy    TOTEN  =      -166.30206133 eV

  energy without entropy =     -166.30859716  energy(sigma->0) =     -166.30423994


--------------------------------------------------------------------------------------------------------




----------------------------------------- Iteration    1(  12)  ---------------------------------------


    POTLOK:  cpu time    0.92: real time    0.92
    SETDIJ:  cpu time    0.16: real time    0.16
     EDDAV:  cpu time  722.11: real time  722.30
       DOS:  cpu time    0.04: real time    0.04
    CHARGE:  cpu time   45.42: real time   45.44
    MIXING:  cpu time    0.02: real time    0.02
    --------------------------------------------
      LOOP:  cpu time  768.68: real time  768.88

 eigenvalue-minimisations  : 15525
 total energy-change (2. order) : 0.1933082E-03  (-0.1975234E-03)
 number of electron     511.9999684 magnetization 
 augmentation part      245.3152174 magnetization 

 Broyden mixing:
  rms(total) = 0.12900E-01    rms(broyden)= 0.12853E-01
  rms(prec ) = 0.22918E-01
  weight for this iteration     100.00

 eigenvalues of (default mixing * dielectric matrix)
  average eigenvalue GAMMA=   0.7797
  2.5152  0.9539  0.9539  0.3887  0.2523  0.2066  0.1874

 Free energy of the ion-electron system (eV)
  ---------------------------------------------------
  alpha Z        PSCENC =      4309.77481446
  Ewald energy   TEWEN  =    -68825.33419380
  -1/2 Hartree   DENC   =    -17354.91166661
  -exchange  EXHF       =         0.00000000
  -V(xc)+E(xc)   XCENC  =      2623.84510516
  PAW double counting   =     76339.65114261   -75506.10695138
  entropy T*S    EENTRO =         0.00661324
  eigenvalues    EBANDS =     -5639.86785282
  atomic energy  EATOM  =     83886.64112113
  ---------------------------------------------------
  free energy    TOTEN  =      -166.30186802 eV

  energy without entropy =     -166.30848125  energy(sigma->0) =     -166.30407243


--------------------------------------------------------------------------------------------------------




----------------------------------------- Iteration    1(  13)  ---------------------------------------


    POTLOK:  cpu time    0.93: real time    0.93
    SETDIJ:  cpu time    0.17: real time    0.17
     EDDAV:  cpu time  720.42: real time  720.64
       DOS:  cpu time    0.04: real time    0.04
    CHARGE:  cpu time   45.63: real time   45.64
    MIXING:  cpu time    0.02: real time    0.02
    --------------------------------------------
      LOOP:  cpu time  767.22: real time  767.45

 eigenvalue-minimisations  : 15512
 total energy-change (2. order) : 0.1721562E-03  (-0.6507150E-04)
 number of electron     511.9999684 magnetization 
 augmentation part      245.3194479 magnetization 

 Broyden mixing:
  rms(total) = 0.60884E-02    rms(broyden)= 0.60599E-02
  rms(prec ) = 0.99300E-02
  weight for this iteration     100.00

 eigenvalues of (default mixing * dielectric matrix)
  average eigenvalue GAMMA=   0.8599
  2.5159  1.4941  0.9712  0.9712  0.2920  0.2474  0.2012  0.1865

 Free energy of the ion-electron system (eV)
  ---------------------------------------------------
  alpha Z        PSCENC =      4309.77481446
  Ewald energy   TEWEN  =    -68825.33419380
  -1/2 Hartree   DENC   =    -17355.22071367
  -exchange  EXHF       =         0.00000000
  -V(xc)+E(xc)   XCENC  =      2623.85854180
  PAW double counting   =     76348.22727136   -75514.13703101
  entropy T*S    EENTRO =         0.00657580
  eigenvalues    EBANDS =     -5640.11808194
  atomic energy  EATOM  =     83886.64112113
  ---------------------------------------------------
  free energy    TOTEN  =      -166.30169586 eV

  energy without entropy =     -166.30827166  energy(sigma->0) =     -166.30388779


--------------------------------------------------------------------------------------------------------




----------------------------------------- Iteration    1(  14)  ---------------------------------------


    POTLOK:  cpu time    0.93: real time    0.93
    SETDIJ:  cpu time    0.16: real time    0.16
     EDDAV:  cpu time  722.26: real time  722.44
       DOS:  cpu time    0.04: real time    0.04
    CHARGE:  cpu time   45.81: real time   45.81
    MIXING:  cpu time    0.02: real time    0.02
    --------------------------------------------
      LOOP:  cpu time  769.22: real time  769.43

 eigenvalue-minimisations  : 15541
 total energy-change (2. order) :-0.2708078E-04  (-0.2637740E-04)
 number of electron     511.9999684 magnetization 
 augmentation part      245.3200367 magnetization 

 Broyden mixing:
  rms(total) = 0.86274E-02    rms(broyden)= 0.86184E-02
  rms(prec ) = 0.16709E-01
  weight for this iteration     100.00

 eigenvalues of (default mixing * dielectric matrix)
  average eigenvalue GAMMA=   0.8344
  2.5217  1.8386  0.9947  0.9947  0.3092  0.2454  0.2209  0.1872  0.1969

 Free energy of the ion-electron system (eV)
  ---------------------------------------------------
  alpha Z        PSCENC =      4309.77481446
  Ewald energy   TEWEN  =    -68825.33419380
  -1/2 Hartree   DENC   =    -17355.93637425
  -exchange  EXHF       =         0.00000000
  -V(xc)+E(xc)   XCENC  =      2623.88953808
  PAW double counting   =     76361.52016357   -75526.75521105
  entropy T*S    EENTRO =         0.00652140
  eigenvalues    EBANDS =     -5640.10810249
  atomic energy  EATOM  =     83886.64112113
  ---------------------------------------------------
  free energy    TOTEN  =      -166.30172294 eV

  energy without entropy =     -166.30824434  energy(sigma->0) =     -166.30389674


--------------------------------------------------------------------------------------------------------




----------------------------------------- Iteration    1(  15)  ---------------------------------------


    POTLOK:  cpu time    0.93: real time    0.93
    SETDIJ:  cpu time    0.16: real time    0.16
     EDDAV:  cpu time  694.69: real time  694.85
       DOS:  cpu time    0.04: real time    0.04
    CHARGE:  cpu time   46.74: real time   46.77
    MIXING:  cpu time    0.02: real time    0.02
    --------------------------------------------
      LOOP:  cpu time  742.59: real time  742.79

 eigenvalue-minimisations  : 14744
 total energy-change (2. order) : 0.8101338E-04  (-0.1721129E-04)
 number of electron     511.9999684 magnetization 
 augmentation part      245.3193246 magnetization 

 Broyden mixing:
  rms(total) = 0.26305E-02    rms(broyden)= 0.26125E-02
  rms(prec ) = 0.46164E-02
  weight for this iteration     100.00

 eigenvalues of (default mixing * dielectric matrix)
  average eigenvalue GAMMA=   0.8298
  2.5256  2.0149  0.9838  0.9838  0.6606  0.2967  0.2530  0.2033  0.1842  0.1926

 Free energy of the ion-electron system (eV)
  ---------------------------------------------------
  alpha Z        PSCENC =      4309.77481446
  Ewald energy   TEWEN  =    -68825.33419380
  -1/2 Hartree   DENC   =    -17356.45332594
  -exchange  EXHF       =         0.00000000
  -V(xc)+E(xc)   XCENC  =      2623.91184080
  PAW double counting   =     76370.25733253   -75535.07722377
  entropy T*S    EENTRO =         0.00657116
  eigenvalues    EBANDS =     -5640.02857850
  atomic energy  EATOM  =     83886.64112113
  ---------------------------------------------------
  free energy    TOTEN  =      -166.30164193 eV

  energy without entropy =     -166.30821309  energy(sigma->0) =     -166.30383231


--------------------------------------------------------------------------------------------------------




----------------------------------------- Iteration    1(  16)  ---------------------------------------


    POTLOK:  cpu time    0.93: real time    0.93
    SETDIJ:  cpu time    0.16: real time    0.16
     EDDAV:  cpu time  512.89: real time  513.01
       DOS:  cpu time    0.04: real time    0.04
    CHARGE:  cpu time   47.59: real time   47.60
    MIXING:  cpu time    0.03: real time    0.03
    --------------------------------------------
      LOOP:  cpu time  561.65: real time  561.79

 eigenvalue-minimisations  :  9741
 total energy-change (2. order) : 0.1196071E-04  (-0.4066896E-05)
 number of electron     511.9999684 magnetization 
 augmentation part      245.3190526 magnetization 

 Broyden mixing:
  rms(total) = 0.20832E-02    rms(broyden)= 0.20785E-02
  rms(prec ) = 0.38736E-02
  weight for this iteration     100.00

 eigenvalues of (default mixing * dielectric matrix)
  average eigenvalue GAMMA=   0.8371
  2.5399  2.1615  1.1548  0.9997  0.9535  0.3096  0.2625  0.2523  0.2026  0.1888
  0.1833

 Free energy of the ion-electron system (eV)
  ---------------------------------------------------
  alpha Z        PSCENC =      4309.77481446
  Ewald energy   TEWEN  =    -68825.33419380
  -1/2 Hartree   DENC   =    -17356.67035408
  -exchange  EXHF       =         0.00000000
  -V(xc)+E(xc)   XCENC  =      2623.92118414
  PAW double counting   =     76373.47987025   -75538.12149691
  entropy T*S    EENTRO =         0.00656137
  eigenvalues    EBANDS =     -5639.99913653
  atomic energy  EATOM  =     83886.64112113
  ---------------------------------------------------
  free energy    TOTEN  =      -166.30162997 eV

  energy without entropy =     -166.30819134  energy(sigma->0) =     -166.30381709


--------------------------------------------------------------------------------------------------------




----------------------------------------- Iteration    1(  17)  ---------------------------------------


    POTLOK:  cpu time    0.95: real time    0.95
    SETDIJ:  cpu time    0.18: real time    0.18
     EDDAV:  cpu time  458.96: real time  459.09
       DOS:  cpu time    0.04: real time    0.04
    CHARGE:  cpu time   46.94: real time   46.95
    MIXING:  cpu time    0.03: real time    0.03
    --------------------------------------------
      LOOP:  cpu time  507.10: real time  507.24

 eigenvalue-minimisations  :  8256
 total energy-change (2. order) : 0.1395408E-04  (-0.1582012E-05)
 number of electron     511.9999684 magnetization 
 augmentation part      245.3185766 magnetization 

 Broyden mixing:
  rms(total) = 0.14356E-02    rms(broyden)= 0.14322E-02
  rms(prec ) = 0.28200E-02
  weight for this iteration     100.00

 eigenvalues of (default mixing * dielectric matrix)
  average eigenvalue GAMMA=   0.8045
  2.5452  2.1921  1.2801  0.9668  0.9668  0.3535  0.2924  0.2575  0.2266  0.2030
  0.1882  0.1820

 Free energy of the ion-electron system (eV)
  ---------------------------------------------------
  alpha Z        PSCENC =      4309.77481446
  Ewald energy   TEWEN  =    -68825.33419380
  -1/2 Hartree   DENC   =    -17356.91589278
  -exchange  EXHF       =         0.00000000
  -V(xc)+E(xc)   XCENC  =      2623.93168872
  PAW double counting   =     76376.85738650   -75541.31333629
  entropy T*S    EENTRO =         0.00655762
  eigenvalues    EBANDS =     -5639.94976158
  atomic energy  EATOM  =     83886.64112113
  ---------------------------------------------------
  free energy    TOTEN  =      -166.30161601 eV

  energy without entropy =     -166.30817363  energy(sigma->0) =     -166.30380189


--------------------------------------------------------------------------------------------------------




----------------------------------------- Iteration    1(  18)  ---------------------------------------


    POTLOK:  cpu time    0.95: real time    0.95
    SETDIJ:  cpu time    0.17: real time    0.17
     EDDAV:  cpu time  444.29: real time  444.41
       DOS:  cpu time    0.04: real time    0.04
    --------------------------------------------
      LOOP:  cpu time  445.45: real time  445.58

 eigenvalue-minimisations  :  7837
 total energy-change (2. order) : 0.5403461E-05  (-0.5784062E-06)
 number of electron     511.9999684 magnetization 
 augmentation part      245.3185766 magnetization 

 Free energy of the ion-electron system (eV)
  ---------------------------------------------------
  alpha Z        PSCENC =      4309.77481446
  Ewald energy   TEWEN  =    -68825.33419380
  -1/2 Hartree   DENC   =    -17356.97408348
  -exchange  EXHF       =         0.00000000
  -V(xc)+E(xc)   XCENC  =      2623.93417137
  PAW double counting   =     76377.64815709   -75542.05806847
  entropy T*S    EENTRO =         0.00656339
  eigenvalues    EBANDS =     -5639.94009228
  atomic energy  EATOM  =     83886.64112113
  ---------------------------------------------------
  free energy    TOTEN  =      -166.30161061 eV

  energy without entropy =     -166.30817400  energy(sigma->0) =     -166.30379840


--------------------------------------------------------------------------------------------------------




 average (electrostatic) potential at core
  the test charge radii are     1.0504
  (the norm of the test charge is              1.0000)
       1 -74.6575       2 -74.6483       3 -74.7117       4 -74.7058       5 -74.6759
       6 -74.6707       7 -74.6721       8 -74.6958       9 -74.6416      10 -74.6725
      11 -74.6670      12 -74.6992      13 -74.6800      14 -74.6517      15 -74.6609
      16 -74.6835      17 -74.6667      18 -74.6668      19 -74.6268      20 -74.6397
      21 -74.6710      22 -74.6656      23 -74.6505      24 -74.7112      25 -74.6977
      26 -74.7147      27 -74.6823      28 -74.6733      29 -74.7128      30 -74.6712
      31 -74.6704      32 -74.6553
 
 
 
 E-fermi :   9.2034     XC(G=0): -13.2002     alpha+bet :-16.1055


 k-point   1 :       0.2500    0.1250    0.9167
  band No.  band energies     occupation 
      1     -40.7682      2.00000
      2     -40.7618      2.00000
      3     -40.7524      2.00000
      4     -40.7472      2.00000
      5     -40.7417      2.00000
      6     -40.7377      2.00000
      7     -40.7344      2.00000
      8     -40.7039      2.00000
      9     -40.6913      2.00000
     10     -40.6849      2.00000
     11     -40.6829      2.00000
     12     -40.6780      2.00000
     13     -40.6732      2.00000
     14     -40.6713      2.00000
     15     -40.6683      2.00000
     16     -40.6635      2.00000
     17     -40.6545      2.00000
     18     -40.6530      2.00000
     19     -40.6492      2.00000
     20     -40.6480      2.00000
     21     -40.6421      2.00000
     22     -40.6390      2.00000
     23     -40.6347      2.00000
     24     -40.6322      2.00000
     25     -40.6254      2.00000
     26     -40.6196      2.00000
     27     -40.6147      2.00000
     28     -40.6070      2.00000
     29     -40.6031      2.00000
     30     -40.5966      2.00000
     31     -40.5931      2.00000
     32     -40.5891      2.00000
     33     -40.5873      2.00000
     34     -40.5767      2.00000
     35     -40.5730      2.00000
     36     -40.5646      2.00000
     37     -40.5585      2.00000
     38     -40.5544      2.00000
     39     -40.5478      2.00000
     40     -40.5398      2.00000
     41     -40.5371      2.00000
     42     -40.5329      2.00000
     43     -40.5284      2.00000
     44     -40.5249      2.00000
     45     -40.5227      2.00000
     46     -40.5196      2.00000
     47     -40.5169      2.00000
     48     -40.5141      2.00000
     49     -40.5127      2.00000
     50     -40.5095      2.00000
     51     -40.5067      2.00000
     52     -40.5047      2.00000
     53     -40.5017      2.00000
     54     -40.4986      2.00000
     55     -40.4977      2.00000
     56     -40.4946      2.00000
     57     -40.4895      2.00000
     58     -40.4875      2.00000
     59     -40.4856      2.00000
     60     -40.4807      2.00000
     61     -40.4759      2.00000
     62     -40.4728      2.00000
     63     -40.4689      2.00000
     64     -40.4661      2.00000
     65     -40.4621      2.00000
     66     -40.4580      2.00000
     67     -40.4562      2.00000
     68     -40.4523      2.00000
     69     -40.4514      2.00000
     70     -40.4493      2.00000
     71     -40.4463      2.00000
     72     -40.4441      2.00000
     73     -40.4427      2.00000
     74     -40.4396      2.00000
     75     -40.4379      2.00000
     76     -40.4359      2.00000
     77     -40.4336      2.00000
     78     -40.4324      2.00000
     79     -40.4319      2.00000
     80     -40.4280      2.00000
     81     -40.4261      2.00000
     82     -40.4240      2.00000
     83     -40.4230      2.00000
     84     -40.4221      2.00000
     85     -40.4192      2.00000
     86     -40.4177      2.00000
     87     -40.4150      2.00000
     88     -40.4114      2.00000
     89     -40.4102      2.00000
     90     -40.4084      2.00000
     91     -40.4048      2.00000
     92     -40.4006      2.00000
     93     -40.3962      2.00000
     94     -40.3921      2.00000
     95     -40.3782      2.00000
     96     -40.3682      2.00000
     97       2.4807      2.00000
     98       3.7660      2.00000
     99       4.1459      2.00000
    100       4.1601      2.00000
    101       4.1661      2.00000
    102       4.1711      2.00000
    103       4.2213      2.00000
    104       4.2293      2.00000
    105       4.2686      2.00000
    106       4.2878      2.00000
    107       4.3620      2.00000
    108       4.4020      2.00000
    109       4.4251      2.00000
    110       4.4456      2.00000
    111       4.5799      2.00000
    112       4.6451      2.00000
    113       4.6912      2.00000
    114       4.8557      2.00000
    115       4.8622      2.00000
    116       4.8826      2.00000
    117       4.9143      2.00000
    118       4.9628      2.00000
    119       4.9959      2.00000
    120       5.0044      2.00000
    121       5.0364      2.00000
    122       5.0542      2.00000
    123       5.0785      2.00000
    124       5.1005      2.00000
    125       5.1494      2.00000
    126       5.1575      2.00000
    127       5.1760      2.00000
    128       5.1942      2.00000
    129       5.2190      2.00000
    130       5.2475      2.00000
    131       5.2946      2.00000
    132       5.2995      2.00000
    133       5.3259      2.00000
    134       5.3450      2.00000
    135       5.4217      2.00000
    136       5.4899      2.00000
    137       5.5166      2.00000
    138       5.5554      2.00000
    139       5.5870      2.00000
    140       5.6049      2.00000
    141       5.6781      2.00000
    142       5.6875      2.00000
    143       5.7401      2.00000
    144       5.7724      2.00000
    145       5.7970      2.00000
    146       5.8367      2.00000
    147       5.8464      2.00000
    148       5.8812      2.00000
    149       5.9124      2.00000
    150       5.9239      2.00000
    151       5.9541      2.00000
    152       5.9663      2.00000
    153       5.9983      2.00000
    154       6.0378      2.00000
    155       6.0768      2.00000
    156       6.1288      2.00000
    157       6.1414      2.00000
    158       6.1684      2.00000
    159       6.1834      2.00000
    160       6.2311      2.00000
    161       6.2475      2.00000
    162       6.2728      2.00000
    163       6.2984      2.00000
    164       6.3193      2.00000
    165       6.3452      2.00000
    166       6.3542      2.00000
    167       6.3675      2.00000
    168       6.3764      2.00000
    169       6.4170      2.00000
    170       6.4534      2.00000
    171       6.4678      2.00000
    172       6.4952      2.00000
    173       6.5291      2.00000
    174       6.5376      2.00000
    175       6.5525      2.00000
    176       6.5557      2.00000
    177       6.5597      2.00000
    178       6.5796      2.00000
    179       6.5831      2.00000
    180       6.5972      2.00000
    181       6.6390      2.00000
    182       6.7150      2.00000
    183       6.8105      2.00000
    184       6.8179      2.00000
    185       6.8848      2.00000
    186       6.9315      2.00000
    187       7.0208      2.00000
    188       7.0485      2.00000
    189       7.0717      2.00000
    190       7.1300      2.00000
    191       7.1805      2.00000
    192       7.2389      2.00000
    193       7.2520      2.00000
    194       7.2835      2.00000
    195       7.2937      2.00000
    196       7.3224      2.00000
    197       7.3970      2.00000
    198       7.4178      2.00000
    199       7.4902      2.00000
    200       7.5317      2.00000
    201       7.5598      2.00000
    202       7.5992      2.00000
    203       7.6308      2.00000
    204       7.6651      2.00000
    205       7.7055      2.00000
    206       7.7341      2.00000
    207       7.7387      2.00000
    208       7.8129      2.00000
    209       7.8354      2.00000
    210       7.8545      2.00000
    211       7.9000      2.00000
    212       7.9336      2.00000
    213       7.9488      2.00000
    214       7.9708      2.00000
    215       8.0039      2.00000
    216       8.0202      2.00000
    217       8.0414      2.00000
    218       8.0684      2.00000
    219       8.1194      2.00000
    220       8.1250      2.00000
    221       8.1464      2.00000
    222       8.1746      2.00000
    223       8.2019      2.00000
    224       8.2256      2.00000
    225       8.2656      2.00000
    226       8.2736      2.00000
    227       8.3414      2.00000
    228       8.3580      2.00000
    229       8.3745      2.00000
    230       8.3882      2.00000
    231       8.4227      2.00000
    232       8.4475      2.00000
    233       8.4726      2.00000
    234       8.4802      2.00000
    235       8.4877      2.00000
    236       8.5065      2.00000
    237       8.5151      2.00000
    238       8.5794      2.00000
    239       8.6349      2.00000
    240       8.6860      2.00000
    241       8.7908      2.00000
    242       8.8149      2.00000
    243       8.8273      2.00000
    244       8.9014      2.00017
    245       8.9406      2.00129
    246       8.9817      2.00746
    247       8.9995      2.01408
    248       9.0120      2.02094
    249       9.0305      2.03468
    250       9.0385      2.04164
    251       9.1044      2.04797
    252       9.1384      1.88211
    253       9.1532      1.74153
    254       9.1581      1.68581
    255       9.2835      0.01928
    256       9.2881     -0.00250
    257       9.2916     -0.01658
    258       9.3067     -0.05647
    259       9.3434     -0.06351
    260       9.4168     -0.01012
    261       9.4207     -0.00876
    262       9.4336     -0.00535
    263       9.4454     -0.00328
    264       9.8217     -0.00000
    265       9.9371     -0.00000
    266      10.0519     -0.00000
    267      10.4674     -0.00000
    268      10.7424     -0.00000
    269      10.7822     -0.00000
    270      10.9557     -0.00000
    271      11.0843     -0.00000
    272      11.2391     -0.00000
    273      11.4176     -0.00000
    274      11.6387     -0.00000
    275      11.9887      0.00000
    276      12.1759      0.00000
    277      12.3666      0.00000
    278      12.4513      0.00000
    279      13.0701      0.00000
    280      13.1936      0.00000
    281      13.2759      0.00000
    282      13.4139      0.00000
    283      15.7563      0.00000
    284      15.9340      0.00000
    285      15.9972      0.00000
    286      16.1898      0.00000
    287      16.3105      0.00000
    288      16.5881      0.00000
    289      16.7907      0.00000
    290      16.8158      0.00000
    291      16.9987      0.00000
    292      17.2292      0.00000
    293      17.2531      0.00000
    294      17.4518      0.00000
    295      18.0915      0.00000
    296      18.5626      0.00000
    297      18.6722      0.00000
    298      18.6779      0.00000
    299      19.0298      0.00000
    300      19.0607      0.00000
    301      19.2106      0.00000
    302      19.3985      0.00000
    303      19.7649      0.00000
    304      19.8037      0.00000
    305      19.8297      0.00000
    306      19.9329      0.00000
    307      20.0421      0.00000

 k-point   2 :       0.5000    0.1250    0.7500
  band No.  band energies     occupation 
      1     -40.7616      2.00000
      2     -40.7472      2.00000
      3     -40.7404      2.00000
      4     -40.7338      2.00000
      5     -40.7298      2.00000
      6     -40.7201      2.00000
      7     -40.7144      2.00000
      8     -40.7058      2.00000
      9     -40.7041      2.00000
     10     -40.6961      2.00000
     11     -40.6911      2.00000
     12     -40.6891      2.00000
     13     -40.6871      2.00000
     14     -40.6827      2.00000
     15     -40.6774      2.00000
     16     -40.6743      2.00000
     17     -40.6716      2.00000
     18     -40.6672      2.00000
     19     -40.6642      2.00000
     20     -40.6594      2.00000
     21     -40.6551      2.00000
     22     -40.6527      2.00000
     23     -40.6487      2.00000
     24     -40.6445      2.00000
     25     -40.6341      2.00000
     26     -40.6284      2.00000
     27     -40.6051      2.00000
     28     -40.6012      2.00000
     29     -40.5933      2.00000
     30     -40.5910      2.00000
     31     -40.5816      2.00000
     32     -40.5775      2.00000
     33     -40.5740      2.00000
     34     -40.5708      2.00000
     35     -40.5648      2.00000
     36     -40.5637      2.00000
     37     -40.5584      2.00000
     38     -40.5529      2.00000
     39     -40.5520      2.00000
     40     -40.5478      2.00000
     41     -40.5412      2.00000
     42     -40.5316      2.00000
     43     -40.5185      2.00000
     44     -40.5162      2.00000
     45     -40.5133      2.00000
     46     -40.5108      2.00000
     47     -40.5084      2.00000
     48     -40.5039      2.00000
     49     -40.5020      2.00000
     50     -40.4991      2.00000
     51     -40.4970      2.00000
     52     -40.4956      2.00000
     53     -40.4915      2.00000
     54     -40.4898      2.00000
     55     -40.4866      2.00000
     56     -40.4850      2.00000
     57     -40.4813      2.00000
     58     -40.4801      2.00000
     59     -40.4778      2.00000
     60     -40.4756      2.00000
     61     -40.4742      2.00000
     62     -40.4728      2.00000
     63     -40.4718      2.00000
     64     -40.4678      2.00000
     65     -40.4670      2.00000
     66     -40.4647      2.00000
     67     -40.4627      2.00000
     68     -40.4585      2.00000
     69     -40.4582      2.00000
     70     -40.4565      2.00000
     71     -40.4524      2.00000
     72     -40.4521      2.00000
     73     -40.4510      2.00000
     74     -40.4481      2.00000
     75     -40.4445      2.00000
     76     -40.4435      2.00000
     77     -40.4404      2.00000
     78     -40.4391      2.00000
     79     -40.4353      2.00000
     80     -40.4323      2.00000
     81     -40.4301      2.00000
     82     -40.4283      2.00000
     83     -40.4263      2.00000
     84     -40.4256      2.00000
     85     -40.4233      2.00000
     86     -40.4196      2.00000
     87     -40.4131      2.00000
     88     -40.4095      2.00000
     89     -40.4048      2.00000
     90     -40.4017      2.00000
     91     -40.3998      2.00000
     92     -40.3952      2.00000
     93     -40.3894      2.00000
     94     -40.3864      2.00000
     95     -40.3853      2.00000
     96     -40.3806      2.00000
     97       3.1366      2.00000
     98       3.1580      2.00000
     99       4.2216      2.00000
    100       4.2414      2.00000
    101       4.3462      2.00000
    102       4.3520      2.00000
    103       4.4404      2.00000
    104       4.4625      2.00000
    105       4.4749      2.00000
    106       4.4916      2.00000
    107       4.5023      2.00000
    108       4.5148      2.00000
    109       4.5369      2.00000
    110       4.5543      2.00000
    111       4.5570      2.00000
    112       4.5761      2.00000
    113       4.6578      2.00000
    114       4.6736      2.00000
    115       4.6842      2.00000
    116       4.7198      2.00000
    117       4.7216      2.00000
    118       4.7370      2.00000
    119       4.8145      2.00000
    120       4.8204      2.00000
    121       4.8315      2.00000
    122       4.8418      2.00000
    123       4.8703      2.00000
    124       4.8887      2.00000
    125       4.9683      2.00000
    126       4.9770      2.00000
    127       4.9873      2.00000
    128       5.0001      2.00000
    129       5.1580      2.00000
    130       5.1728      2.00000
    131       5.1876      2.00000
    132       5.2091      2.00000
    133       5.2807      2.00000
    134       5.2950      2.00000
    135       5.3353      2.00000
    136       5.3489      2.00000
    137       5.4337      2.00000
    138       5.4584      2.00000
    139       5.5433      2.00000
    140       5.5619      2.00000
    141       5.5984      2.00000
    142       5.6059      2.00000
    143       5.6339      2.00000
    144       5.6500      2.00000
    145       5.6943      2.00000
    146       5.6975      2.00000
    147       5.8455      2.00000
    148       5.8623      2.00000
    149       5.9291      2.00000
    150       5.9509      2.00000
    151       5.9785      2.00000
    152       5.9946      2.00000
    153       6.0259      2.00000
    154       6.0434      2.00000
    155       6.1063      2.00000
    156       6.1241      2.00000
    157       6.2090      2.00000
    158       6.2409      2.00000
    159       6.3249      2.00000
    160       6.3366      2.00000
    161       6.3634      2.00000
    162       6.3663      2.00000
    163       6.4718      2.00000
    164       6.4779      2.00000
    165       6.4900      2.00000
    166       6.4984      2.00000
    167       6.5126      2.00000
    168       6.5490      2.00000
    169       6.5965      2.00000
    170       6.6274      2.00000
    171       6.6334      2.00000
    172       6.6479      2.00000
    173       6.6651      2.00000
    174       6.6814      2.00000
    175       6.6910      2.00000
    176       6.7083      2.00000
    177       6.7421      2.00000
    178       6.7503      2.00000
    179       6.7993      2.00000
    180       6.8064      2.00000
    181       6.8377      2.00000
    182       6.8616      2.00000
    183       6.8817      2.00000
    184       6.8887      2.00000
    185       6.9466      2.00000
    186       6.9841      2.00000
    187       7.0060      2.00000
    188       7.0262      2.00000
    189       7.1158      2.00000
    190       7.1329      2.00000
    191       7.1413      2.00000
    192       7.1544      2.00000
    193       7.1820      2.00000
    194       7.2034      2.00000
    195       7.2512      2.00000
    196       7.2563      2.00000
    197       7.2842      2.00000
    198       7.2986      2.00000
    199       7.3418      2.00000
    200       7.3507      2.00000
    201       7.4983      2.00000
    202       7.5135      2.00000
    203       7.6175      2.00000
    204       7.6248      2.00000
    205       7.6390      2.00000
    206       7.6544      2.00000
    207       7.6747      2.00000
    208       7.7080      2.00000
    209       7.7149      2.00000
    210       7.7261      2.00000
    211       7.7427      2.00000
    212       7.7695      2.00000
    213       7.7865      2.00000
    214       7.8000      2.00000
    215       7.9210      2.00000
    216       7.9309      2.00000
    217       7.9830      2.00000
    218       8.0151      2.00000
    219       8.0326      2.00000
    220       8.0631      2.00000
    221       8.1171      2.00000
    222       8.1353      2.00000
    223       8.1621      2.00000
    224       8.1807      2.00000
    225       8.1907      2.00000
    226       8.1972      2.00000
    227       8.5042      2.00000
    228       8.5226      2.00000
    229       8.5527      2.00000
    230       8.5571      2.00000
    231       8.5805      2.00000
    232       8.5944      2.00000
    233       8.6038      2.00000
    234       8.6204      2.00000
    235       8.6542      2.00000
    236       8.6639      2.00000
    237       8.6986      2.00000
    238       8.7183      2.00000
    239       8.8032      2.00000
    240       8.8065      2.00000
    241       8.9027      2.00018
    242       8.9135      2.00033
    243       8.9306      2.00079
    244       8.9411      2.00132
    245       8.9538      2.00237
    246       8.9602      2.00313
    247       8.9656      2.00394
    248       8.9826      2.00774
    249       8.9908      2.01044
    250       8.9990      2.01385
    251       9.0078      2.01838
    252       9.0155      2.02321
    253       9.0309      2.03497
    254       9.0404      2.04344
    255       9.0584      2.05962
    256       9.0844      2.07053
    257       9.1497      1.77881
    258       9.1654      1.59380
    259       9.3038     -0.05107
    260       9.3090     -0.06009
    261       9.3186     -0.06912
    262       9.3261     -0.07091
    263       9.5728     -0.00000
    264       9.5819     -0.00000
    265       9.9202     -0.00000
    266       9.9280     -0.00000
    267      10.5069     -0.00000
    268      10.5165     -0.00000
    269      10.8303     -0.00000
    270      10.8351     -0.00000
    271      10.8950     -0.00000
    272      10.9141     -0.00000
    273      12.0957      0.00000
    274      12.0994      0.00000
    275      12.9789      0.00000
    276      12.9894      0.00000
    277      13.2271      0.00000
    278      13.2328      0.00000
    279      13.7576      0.00000
    280      13.7752      0.00000
    281      13.9042      0.00000
    282      13.9066      0.00000
    283      14.7743      0.00000
    284      14.7909      0.00000
    285      15.0126      0.00000
    286      15.0287      0.00000
    287      15.6828      0.00000
    288      15.6862      0.00000
    289      16.4636      0.00000
    290      16.4891      0.00000
    291      16.9065      0.00000
    292      16.9320      0.00000
    293      17.1368      0.00000
    294      17.1473      0.00000
    295      17.3259      0.00000
    296      17.3394      0.00000
    297      17.9812      0.00000
    298      18.0325      0.00000
    299      18.5095      0.00000
    300      18.5301      0.00000
    301      18.9128      0.00000
    302      18.9248      0.00000
    303      19.6571      0.00000
    304      19.6780      0.00000
    305      19.7787      0.00000
    306      19.7991      0.00000
    307      20.0622      0.00000

 k-point   3 :       0.7500    0.1250    0.5833
  band No.  band energies     occupation 
[...]
         0         1         2         3         4         5         6         7         8         9
x   266.6814    0.0000    0.0536    0.4725    0.0294    1.3616   -0.0516    0.5827   42.3502  -10.9199
x     0.0227    0.1413   -0.0005   -0.0357    0.0039   -0.1107   -6.8762    3.8243   -0.0133   -0.0984
x    -0.0184   -0.1633    0.0007   -0.0486   -0.7468    0.7218   -0.0009   -0.0095   -0.0015   -0.0100
x    -0.0000   -0.0017   -0.0078    0.0133    0.0000   -0.0001   -0.0000   -0.0001    0.0000   -0.0000
x    -0.0000    0.0001   -0.0000   -0.0000    0.0000    0.0000    0.0000   -0.0000    0.0000    0.0000
y   266.6814    0.0000   -0.4762   -0.0471   -0.0296   -1.3614    0.5752   -0.0754   42.3521  -10.9206
y    -0.1425   -0.0085    0.0006    0.0364   -0.1081    0.0211   -6.9003    3.8376    0.1052    0.0094
y     0.0204    0.1674   -0.0473    0.0116   -0.7486    0.7237    0.0106    0.0014    0.0019    0.0105
y    -0.0016    0.0006   -0.0078    0.0134    0.0001    0.0000    0.0000    0.0001   -0.0000    0.0000
y    -0.0000    0.0001    0.0000   -0.0000    0.0000   -0.0000   -0.0000   -0.0000    0.0000    0.0000
z   266.6814    0.0000    0.0000   -0.0025    0.0007   -0.0002   -0.0014    0.0023   44.2764   -0.0001
z     0.0002   -0.0027   -0.0010    0.0004   -0.0008    0.0021   -8.1325    0.0000   -0.0012   -0.0026
z     0.0002   -0.0002   -0.0008    0.0019   -1.1201    0.0000   -0.0002   -0.0005    0.0000   -0.0000
z    -0.0001    0.0001   -0.0175    0.0000   -0.0000   -0.0000   -0.0000    0.0000   -0.0000    0.0000
z    -0.0001    0.0000    0.0000    0.0000   -0.0000   -0.0000   -0.0000   -0.0000    0.0000    0.0000
 total charge-density along one line
x   512.0000    0.0000    0.1082    0.9411    0.0655    3.1168   -0.1450    1.7066  190.1741  -49.0257
x     0.1970    1.2743    0.1317    1.9345   -0.0417    0.5912   18.8955  -10.4982    0.0417    0.1609
x     0.0096    0.0699   -0.0059   -0.0311   -1.0076    0.9751    0.0031   -0.0149   -0.0012   -0.0138
x    -0.0020    0.0032    0.1410   -0.2383    0.0017    0.0062    0.0013    0.0054    0.0003   -0.0013
x    -0.0181    0.0702   -0.0004   -0.0018   -0.0004   -0.0013   -0.0002    0.0007   -0.0011   -0.0259
x     0.0001    0.0006    0.0001    0.0002    0.0001   -0.0004    0.0037    0.0099    0.0000   -0.0002
x     0.0001    0.0001   -0.0001    0.0003   -0.0030   -0.0035   -0.0000    0.0001   -0.0001   -0.0002
x     0.0001   -0.0002    0.0018    0.0010    0.0000   -0.0000    0.0001    0.0001   -0.0001    0.0001
x    -0.0010   -0.0001   -0.0000   -0.0000   -0.0001   -0.0001    0.0001   -0.0001    0.0005   -0.0001
x     0.0000    0.0000    0.0000    0.0001   -0.0000    0.0001   -0.0003    0.0000
y   512.0000    0.0000   -0.9451   -0.0951   -0.0665   -3.1181    1.6919   -0.2267  190.1322  -49.0151
y    -1.2879   -0.0876   -0.1316   -1.9297    0.5784   -0.0935   18.8068  -10.4490   -0.1536    0.0005
y    -0.0032   -0.0559   -0.0327    0.0152   -1.0319    0.9989    0.0199    0.0051    0.0046    0.0181
y     0.0024    0.0020    0.1398   -0.2362   -0.0066   -0.0003   -0.0013   -0.0054   -0.0011    0.0000
y    -0.0181    0.0700    0.0020    0.0003    0.0004    0.0013    0.0006   -0.0000   -0.0011   -0.0259
y    -0.0008   -0.0002   -0.0001   -0.0002   -0.0004   -0.0000    0.0037    0.0098    0.0003    0.0001
y    -0.0000   -0.0001    0.0002    0.0000   -0.0030   -0.0035   -0.0001   -0.0001    0.0001    0.0002
y    -0.0001   -0.0001    0.0018    0.0010    0.0000    0.0000   -0.0001   -0.0001    0.0001    0.0000
y    -0.0010   -0.0001    0.0000   -0.0000    0.0001    0.0001   -0.0001   -0.0000    0.0005   -0.0001
y    -0.0000    0.0000   -0.0000   -0.0001    0.0001    0.0000   -0.0003    0.0000
z   512.0000    0.0000   -0.0014   -0.0031    0.0033    0.0002   -0.0024    0.0027  198.2917   -0.0000
z    -0.0015   -0.0063    0.0008    0.0009   -0.0020    0.0056   22.4130    0.0000   -0.0030   -0.0074
z     0.0013   -0.0001   -0.0023    0.0062   -1.5035    0.0000   -0.0013   -0.0032    0.0002   -0.0000
z    -0.0006    0.0013    0.3235   -0.0000   -0.0001   -0.0002   -0.0000    0.0000    0.0000   -0.0001
z    -0.0908    0.0000    0.0000    0.0001    0.0000   -0.0000    0.0000   -0.0000    0.0353   -0.0000
z     0.0000    0.0000    0.0000    0.0000    0.0000   -0.0000   -0.0159   -0.0000    0.0000    0.0000
z     0.0000   -0.0000    0.0000    0.0000    0.0077    0.0000   -0.0000   -0.0000   -0.0000    0.0000
z    -0.0000    0.0000   -0.0039    0.0000   -0.0000   -0.0000   -0.0000   -0.0000   -0.0000    0.0000
z     0.0020   -0.0000   -0.0000   -0.0000   -0.0000    0.0000   -0.0000    0.0000   -0.0012   -0.0000
z     0.0000    0.0000    0.0000   -0.0000    0.0000   -0.0000    0.0009    0.0000
 
 pseudopotential strength for first ion, spin component:           1
-37.273   0.014  -0.001   8.269  -0.008   0.000   0.000   0.000
  0.014 -37.280   0.001  -0.008   8.272  -0.001  -0.000  -0.001
 -0.001   0.001 -37.285   0.000  -0.001   8.275   0.000  -0.000
  8.269  -0.008   0.000   7.867   0.002  -0.000  -0.000  -0.000
 -0.008   8.272  -0.001   0.002   7.866   0.000   0.000   0.000
  0.000  -0.001   8.275  -0.000   0.000   7.865   0.000   0.000
  0.000  -0.000   0.000  -0.000   0.000   0.000  -2.323   0.000
  0.000  -0.001  -0.000  -0.000   0.000   0.000   0.000  -2.320
 -0.000   0.001   0.000   0.000  -0.000  -0.000   0.000   0.007
 -0.000   0.001   0.001   0.000  -0.000  -0.000   0.007  -0.001
 -0.000   0.001   0.000  -0.000  -0.000  -0.000   0.001  -0.010
  0.000  -0.000   0.000  -0.000   0.000   0.000  -1.976   0.000
  0.000  -0.001  -0.000  -0.000   0.000   0.000   0.000  -1.973
 -0.001   0.001   0.000   0.000  -0.000  -0.000   0.000   0.008
 -0.000   0.001   0.001   0.000  -0.000  -0.000   0.007  -0.001
 -0.000   0.001   0.000  -0.000  -0.000  -0.000   0.002  -0.011
  0.000  -0.000  -0.000   0.000  -0.000  -0.000   0.000  -0.005
  0.001  -0.001  -0.001   0.000  -0.000  -0.000   0.000  -0.009
 total augmentation occupancy for first ion, spin component:           1
  1.997  -0.000   0.000  -0.013   0.000  -0.000  -0.000   0.000   0.000   0.000  -0.000   0.000  -0.000  -0.000  -0.000   0.000
 -0.000   1.997   0.000   0.000  -0.013   0.000   0.000   0.000  -0.000  -0.000  -0.000  -0.000  -0.000   0.000   0.000   0.000
  0.000   0.000   1.997  -0.000   0.000  -0.013   0.000   0.000  -0.000  -0.000  -0.000  -0.000  -0.000   0.000   0.000   0.000
 -0.013   0.000  -0.000   0.101  -0.004   0.000  -0.001   0.002   0.002   0.000  -0.002   0.001   0.000  -0.001  -0.000   0.002
  0.000  -0.013   0.000  -0.004   0.101   0.000   0.001   0.008  -0.003  -0.006  -0.003  -0.001  -0.005   0.002   0.004   0.002
 -0.000   0.000  -0.013   0.000   0.000   0.104   0.002   0.001  -0.001  -0.005  -0.002  -0.002  -0.000   0.001   0.003   0.002
 -0.000   0.000   0.000  -0.001   0.001   0.002   2.687   0.015  -0.001  -0.013  -0.011  -0.690  -0.011   0.001   0.012   0.010
  0.000   0.000   0.000   0.002   0.008   0.001   0.015   2.668  -0.035   0.001   0.036  -0.011  -0.676   0.030  -0.001  -0.030
  0.000  -0.000  -0.000   0.002  -0.003  -0.001  -0.001  -0.035   2.466   0.005  -0.006   0.001   0.029  -0.503  -0.004   0.005
  0.000  -0.000  -0.000   0.000  -0.006  -0.005  -0.013   0.001   0.005   2.687  -0.004   0.012  -0.001  -0.004  -0.694   0.002
 -0.000  -0.000  -0.000  -0.002  -0.003  -0.002  -0.011   0.036  -0.006  -0.004   2.466   0.010  -0.029   0.005   0.002  -0.505
  0.000  -0.000  -0.000   0.001  -0.001  -0.002  -0.690  -0.011   0.001   0.012   0.010   0.445   0.008  -0.001  -0.013  -0.002
 -0.000  -0.000  -0.000   0.000  -0.005  -0.000  -0.011  -0.676   0.029  -0.001  -0.029   0.008   0.437  -0.012   0.000   0.012
 -0.000   0.000   0.000  -0.001   0.002   0.001   0.001   0.030  -0.503  -0.004   0.005  -0.001  -0.012   0.407   0.003  -0.004
 -0.000   0.000   0.000  -0.000   0.004   0.003   0.012  -0.001  -0.004  -0.694   0.002  -0.013   0.000   0.003   0.440   0.001
  0.000   0.000   0.000   0.002   0.002   0.002   0.010  -0.030   0.005   0.002  -0.505  -0.002   0.012  -0.004   0.001   0.406
 -0.000   0.000   0.000   0.004  -0.002  -0.003   0.000  -0.034  -0.005   0.006   0.008  -0.002   0.044   0.001  -0.007  -0.012
  0.000  -0.000  -0.000  -0.000   0.000   0.000   0.000  -0.003   0.001  -0.001   0.001   0.000  -0.002  -0.000   0.001   0.001


------------------------ aborting loop because EDIFF is reached ----------------------------------------


    CHARGE:  cpu time   45.01: real time   45.01
    FORLOC:  cpu time    0.13: real time    0.13
    FORNL :  cpu time  228.53: real time  228.56
    STRESS:  cpu time  672.60: real time  672.78
    FORCOR:  cpu time    1.01: real time    1.01
    FORHAR:  cpu time    0.33: real time    0.33
    MIXING:  cpu time    0.03: real time    0.03

  FORCE on cell =-STRESS in cart. coord.  units (eV):
  Direction    XX          YY          ZZ          XY          YZ          ZX
  --------------------------------------------------------------------------------------
  Alpha Z  4309.77481  4309.77481  4309.77481
  Ewald  -22958.15075-22959.54329-22907.92005   -13.35282     0.21098     0.10639
  Hartree  5776.53739  5777.55053  5802.92688   -12.43200     2.21748     0.26251
  E(xc)   -2903.20901 -2903.22688 -2903.24180    -0.00137     0.01265    -0.00074
  Local    5714.24837  5710.41954  5642.77105    26.88176    -6.05256    -0.33329
  n-local  -901.41237  -903.52887  -905.71667     0.44602     0.45620    -0.01567
  augment  3880.69700  3884.14321  3880.78049    -0.59130     1.68222    -0.02106
  Kinetic  7087.85663  7091.23316  7086.73780    -0.51512     2.25329    -0.03875
  Fock        0.00000     0.00000     0.00000     0.00000     0.00000     0.00000
  -------------------------------------------------------------------------------------
  Total       6.34207     6.82220     6.11252     0.43518     0.78025    -0.04062
  in kB      20.97342    22.56122    20.21427     1.43914     2.58029    -0.13433
  external pressure =       21.25 kB  Pullay stress =        0.00 kB


 VOLUME and BASIS-vectors are now :
 -----------------------------------------------------------------------------
  energy-cutoff  :      300.00
  volume of cell :      484.48
      direct lattice vectors                 reciprocal lattice vectors
     7.854000000 -0.000000000 -0.000000000     0.127323657  0.000000000 -0.000000000
    -0.000000000  7.854000000  0.000000000     0.000000000  0.127323657 -0.000000000
     0.000000000  0.000000000  7.854000000     0.000000000 -0.000000000  0.127323657

  length of vectors
     7.854000000  7.854000000  7.854000000     0.127323657  0.127323657  0.127323657


 FORCES acting on ions
    electron-ion (+dipol)            ewald-force                    non-local-force                 convergence-correction
 -----------------------------------------------------------------------------------------------
   -.112E+02 0.762E+01 -.900E+01   0.112E+02 -.760E+01 0.906E+01   0.796E-01 -.102E+00 0.542E-02   0.123E-02 -.589E-02 0.741E-02
   0.264E+02 0.260E+02 0.373E+02   -.265E+02 -.259E+02 -.374E+02   -.229E+00 -.263E+00 -.105E+00   0.300E-03 0.252E-02 0.450E-02
   -.396E+02 -.110E+02 0.294E+02   0.397E+02 0.110E+02 -.295E+02   0.658E-01 0.401E-01 -.475E-01   0.262E-02 0.289E-03 -.355E-02
   -.104E+03 -.108E+03 -.117E+01   0.104E+03 0.109E+03 0.120E+01   0.818E+00 0.823E+00 -.125E-01   0.703E-02 -.397E-03 -.246E-02
   0.237E+02 0.240E+01 -.386E+02   -.238E+02 -.232E+01 0.387E+02   -.126E-01 -.148E+00 0.881E-01   0.820E-02 -.126E-02 0.218E-02
   -.211E+01 0.208E+02 0.213E+01   0.221E+01 -.209E+02 -.217E+01   -.181E+00 -.269E-01 0.214E-02   0.522E-02 0.881E-02 -.417E-02
   -.298E+02 -.299E+02 -.604E+00   0.298E+02 0.299E+02 0.616E+00   0.306E+00 0.336E+00 -.347E-02   0.113E-01 0.683E-03 -.449E-02
   0.573E+02 0.286E+02 0.270E+02   -.575E+02 -.287E+02 -.270E+02   -.362E+00 -.299E+00 -.781E-01   0.598E-02 -.958E-02 0.639E-02
   0.327E+02 0.357E+02 -.352E+02   -.327E+02 -.357E+02 0.352E+02   -.219E+00 -.258E+00 0.102E+00   -.525E-02 0.530E-03 -.702E-02
   0.882E+01 0.812E+01 -.180E+00   -.880E+01 -.807E+01 0.172E+00   0.393E-01 0.236E-01 0.114E-01   -.147E-02 0.126E-01 0.495E-03
   -.467E+01 0.814E+01 0.423E+00   0.472E+01 -.825E+01 -.426E+00   -.119E-01 0.105E+00 -.656E-02   0.133E-02 0.331E-02 0.387E-02
   0.257E+02 0.271E+02 -.388E+02   -.257E+02 -.273E+02 0.389E+02   -.281E+00 -.196E+00 0.810E-01   -.238E-02 -.101E-01 -.307E-02
   0.571E+02 0.636E+02 0.665E+00   -.572E+02 -.638E+02 -.701E+00   -.367E+00 -.389E+00 0.441E-02   -.110E-01 -.557E-02 0.232E-02
   -.382E+02 -.411E+02 -.355E+02   0.381E+02 0.411E+02 0.356E+02   0.426E+00 0.425E+00 0.750E-01   -.879E-02 0.115E-01 0.533E-02
   0.343E+01 0.239E+02 0.375E+02   -.337E+01 -.240E+02 -.376E+02   -.126E+00 -.467E-01 -.106E+00   -.108E-01 0.420E-02 -.975E-03
   0.307E+02 -.236E+02 -.697E+01   -.309E+02 0.237E+02 0.689E+01   -.953E-01 -.190E+00 0.629E-01   -.541E-02 -.117E-01 -.684E-02
   0.746E+01 -.461E+01 -.940E+00   -.755E+01 0.465E+01 0.940E+00   0.977E-01 -.109E-01 0.322E-02   0.137E-01 0.519E-02 0.410E-02
   0.890E+01 0.843E+01 -.481E+00   -.888E+01 -.842E+01 0.480E+00   -.152E+00 -.141E+00 -.575E-03   0.108E-01 0.108E-02 0.297E-02
   -.656E+01 -.354E+02 -.288E+02   0.655E+01 0.354E+02 0.289E+02   0.277E-01 0.781E-01 0.912E-01   0.406E-02 -.811E-02 -.580E-02
   0.162E+02 0.303E+02 0.380E+02   -.162E+02 -.304E+02 -.381E+02   -.130E+00 -.868E-02 -.927E-01   0.321E-02 0.530E-03 -.173E-02
   0.419E+01 0.383E+01 -.739E+00   -.414E+01 -.376E+01 0.766E+00   -.155E+00 -.172E+00 0.245E-02   -.389E-02 0.647E-02 -.623E-03
   0.216E+02 -.197E+01 0.791E+00   -.217E+02 0.201E+01 -.831E+00   -.219E-01 -.151E+00 0.537E-02   -.117E-02 -.311E-02 -.410E-02
   -.226E+02 -.484E+02 0.370E+02   0.226E+02 0.485E+02 -.371E+02   0.472E+00 0.359E+00 -.838E-01   0.526E-02 -.976E-02 0.363E-02
   -.458E+02 -.428E+02 0.382E+02   0.459E+02 0.429E+02 -.383E+02   0.443E+00 0.378E+00 -.111E+00   0.437E-02 0.122E-02 0.707E-02
   0.362E+02 0.335E+02 0.386E+02   -.363E+02 -.335E+02 -.387E+02   -.234E+00 -.219E+00 -.785E-01   -.786E-02 0.924E-02 -.509E-02
   0.380E+02 0.234E+02 -.382E+02   -.383E+02 -.236E+02 0.383E+02   0.166E-01 -.150E+00 0.103E+00   -.111E-01 -.295E-02 0.993E-03
   0.596E+01 -.136E+02 0.800E+01   -.596E+01 0.136E+02 -.798E+01   -.928E-01 0.830E-01 -.464E-01   -.125E-01 -.674E-02 0.684E-02
   -.380E+02 -.373E+02 0.648E-01   0.381E+02 0.374E+02 -.569E-01   0.171E+00 0.170E+00 -.452E-02   -.472E-02 -.109E-02 -.254E-02
   -.534E+02 -.278E+02 -.390E+02   0.537E+02 0.279E+02 0.391E+02   0.321E+00 0.491E+00 0.101E+00   0.447E-02 0.140E-01 -.369E-02
   0.195E+02 0.478E+02 -.309E+02   -.194E+02 -.479E+02 0.311E+02   -.324E+00 -.328E+00 0.474E-01   -.430E-02 0.279E-03 0.424E-02
   -.723E+01 -.766E+01 -.322E+00   0.731E+01 0.775E+01 0.327E+00   -.119E+00 -.114E+00 -.820E-02   -.841E-03 -.517E-02 0.122E-02
   -.208E+02 0.342E+02 0.102E+02   0.210E+02 -.343E+02 -.103E+02   -.184E+00 -.116E+00 -.170E-03   0.232E-02 -.647E-03 -.751E-02
 -----------------------------------------------------------------------------------------------
   0.208E-01 0.243E-01 -.107E-02   -.945E-12 -.114E-12 -.114E-12   -.163E-01 -.200E-01 0.118E-02   0.922E-04 0.305E-03 -.962E-04
 
 
 POSITION                                       TOTAL-FORCE (eV/Angst)
 -----------------------------------------------------------------------------------
      0.07204      0.07204      0.00000         0.064233     -0.087671      0.075474
      0.12221      2.08571      1.96350        -0.269976     -0.220440     -0.172662
      0.06681      3.99381      3.92700         0.200081      0.042184     -0.169567
      7.80769      5.84419      5.89050         1.045115      1.070932      0.010608
      2.07319      0.10969      1.96350        -0.156865     -0.070417      0.215942
      2.07024      2.07024      3.92700        -0.078142     -0.144009     -0.044313
      1.97507      3.93857      5.89050         0.304754      0.279086      0.004007
      2.07319      6.00019      0.00000        -0.515493     -0.383013     -0.063599
      4.04921      0.12221      3.92700        -0.240223     -0.271948      0.151298
      3.99381      2.03031      5.89050         0.056447      0.088871      0.003968
      3.99904      3.99904      0.00000         0.031194     -0.001507     -0.005301
      4.04921      6.01271      1.96350        -0.236474     -0.321921      0.211458
      5.99724      0.10674      5.89050        -0.531432     -0.562290     -0.029958
      5.90839      1.98139     -0.00000         0.368167      0.414242      0.167199
      6.00019      4.03669      1.96350        -0.078562     -0.142673     -0.180736
      5.99724      5.99724      3.92700        -0.275678     -0.025111     -0.015017
      2.03554      2.03554      0.00000         0.021042      0.026866      0.006852
      2.08571      4.04921      1.96350        -0.121477     -0.125100      0.001453
      2.03031      5.95731      3.92700         0.022097      0.147238      0.130159
      2.03031      0.06681      5.89050        -0.123427     -0.095996     -0.195437
      4.03669      2.07319      1.96350        -0.110650     -0.089820      0.028671
      4.03374      4.03374      3.92700        -0.128104     -0.116885     -0.038619
      3.93857      5.90207      5.89050         0.460018      0.439366     -0.159405
      3.94489      0.01789     -0.00000         0.540413      0.488075     -0.215269
      6.01271      2.08571      3.92700        -0.349722     -0.283557     -0.227116
      5.95731      3.99381      5.89050        -0.302967     -0.308802      0.201291
      5.96254      5.96254      0.00000        -0.110242      0.077604     -0.020712
      5.96254      0.07204      1.96350         0.274124      0.246445      0.000785
      0.01157      1.97507      5.89050         0.571661      0.603923      0.220720
      0.10969      4.03669      0.00000        -0.258746     -0.403880      0.225726
      0.10674      5.99724      1.96350        -0.038330     -0.030253     -0.002065
      0.10674      0.10674      3.92700        -0.032837     -0.239539     -0.115835
 -----------------------------------------------------------------------------------
    total drift:                                0.004631      0.004621      0.000012


--------------------------------------------------------------------------------------------------------



  FREE ENERGIE OF THE ION-ELECTRON SYSTEM (eV)
  ---------------------------------------------------
  free  energy   TOTEN  =      -166.30161061 eV

  energy  without entropy=     -166.30817400  energy(sigma->0) =     -166.30379840
 


--------------------------------------------------------------------------------------------------------


    POTLOK:  cpu time    1.06: real time    1.07


--------------------------------------------------------------------------------------------------------


     LOOP+:  cpu time13812.95: real time13816.77
    4ORBIT:  cpu time    0.00: real time    0.00

 total amount of memory used by VASP on root node   849986. kBytes
========================================================================

   base      :      30000. kBytes
   nonlr-proj:      27628. kBytes
   grid      :      47517. kBytes
   one-center:        497. kBytes
   wavefun   :     744344. kBytes
 
  
  
 General timing and accounting informations for this job:
 ========================================================
  
                  Total CPU time used (sec):    13914.313
                            User time (sec):    13912.339
                          System time (sec):        1.975
                         Elapsed time (sec):    13918.581
  
                   Maximum memory used (kb):     2313252.
                   Average memory used (kb):           0.
  
                          Minor page faults:       910403
                          Major page faults:            9
                 Voluntary context switches:          351
