 vasp.5.3.3 18Dez12 (build Jun 21 2016 14:15:03) complex                        
  
 executed on             LinuxIFC date 2017.10.19  13:24:50
 serial version


--------------------------------------------------------------------------------------------------------


 INCAR:
 POTCAR:    PAW_PBE Pd_pv 28Jan2005               
 POTCAR:    PAW_PBE Pd_pv 28Jan2005               
   VRHFIN =Pd: 4p5s4d                                                           
   LEXCH  = PE                                                                  
   EATOM  =  2621.5550 eV,  192.6789 Ry                                         
                                                                                
   TITEL  = PAW_PBE Pd_pv 28Jan2005                                             
   LULTRA =        F    use ultrasoft PP ?                                      
   IUNSCR =        1    unscreen: 0-lin 1-nonlin 2-no                           
   RPACOR =    2.250    partial core radius                                     
   POMASS =  106.420; ZVAL   =   16.000    mass and valenz                      
   RCORE  =    2.400    outmost cutoff radius                                   
   RWIGS  =    2.300; RWIGS  =    1.217    wigner-seitz radius (au A)           
   ENMAX  =  250.925; ENMIN  =  188.194 eV                                      
   ICORE  =        3    local potential                                         
   LCOR   =        T    correct aug charges                                     
   LPAW   =        T    paw PP                                                  
   EAUG   =  473.067                                                            
   DEXC   =    0.000                                                            
   RMAX   =    2.449    core radius for proj-oper                               
   RAUG   =    1.300    factor for augmentation sphere                          
   RDEP   =    2.405    radius for radial grids                                 
   RDEPT  =    1.966    core radius for aug-charge                              
                                                                                
   Atomic configuration                                                         
   11 entries                                                                   
     n  l   j            E        occ.                                          
     1  0  0.50    -24164.6632   2.0000                                         
     2  0  0.50     -3530.9218   2.0000                                         
     2  1  1.50     -3165.6822   6.0000                                         
     3  0  0.50      -639.4578   2.0000                                         
     3  1  1.50      -519.4532   6.0000                                         
     3  2  2.50      -328.9758  10.0000                                         
     4  0  0.50       -88.7014   2.0000                                         
     4  1  1.50       -54.4541   6.0000                                         
     4  2  2.50        -6.6878   9.0000                                         
     5  0  0.50        -4.3543   1.0000                                         
     4  3  2.50        -1.3606   0.0000                                         
   Description                                                                  
     l       E           TYP  RCUT    TYP  RCUT                                 
     1    -54.4540524     23  2.100                                             
     1      4.0817478     23  2.100                                             
     2     -6.6878326     23  2.400                                             
     2     -4.0817478     23  2.400                                             
     0     -4.3542962     23  2.400                                             
     0     13.6058260     23  2.400                                             
     3     -5.4423304     23  2.400                                             
  local pseudopotential read in
  partial core-charges read in
  partial kinetic energy density read in
  atomic valenz-charges read in
  non local Contribution for L=           1  read in
    real space projection operators read in
  non local Contribution for L=           1  read in
    real space projection operators read in
  non local Contribution for L=           2  read in
    real space projection operators read in
  non local Contribution for L=           2  read in
    real space projection operators read in
  non local Contribution for L=           0  read in
    real space projection operators read in
  non local Contribution for L=           0  read in
    real space projection operators read in
    PAW grid and wavefunctions read in
 
   number of l-projection  operators is LMAX  =           6
   number of lm-projection operators is LMMAX =          18
 
 Optimization of the real space projectors (new method)

 maximal supplied QI-value         = 15.68
 optimisation between [QCUT,QGAM] = [  8.78, 17.72] = [ 21.60, 87.97] Ry 
 Optimized for a Real-space Cutoff    1.74 Angstroem

   l    n(q)    QCUT    max X(q) W(low)/X(q) W(high)/X(q)  e(spline) 
   1      9     8.783     3.357    0.98E-04    0.76E-04    0.17E-06
   1      9     8.783     4.938    0.21E-03    0.13E-03    0.38E-06
   2      8     8.783    23.508    0.21E-03    0.23E-03    0.36E-06
   2      8     8.783    23.349    0.20E-03    0.22E-03    0.34E-06
   0      9     8.783    49.920    0.63E-04    0.36E-04    0.14E-06
   0      9     8.783    23.997    0.53E-04    0.34E-04    0.12E-06
  PAW_PBE Pd_pv 28Jan2005               :
 energy of atom  1       EATOM=-2621.5550
 kinetic energy error for atom=    0.0975 (will be added to EATOM!!)
 
 
 POSCAR: Pd                                      
  positions in cartesian coordinates
  No initial velocities read in
 exchange correlation table for  LEXCH =        8
   RHO(1)=    0.500       N(1)  =     2000
   RHO(2)=  100.500       N(2)  =     4000
 


--------------------------------------------------------------------------------------------------------


 ion  position               nearest neighbor table
   1  0.999  0.999  0.000-  13 2.68  28 2.68   2 2.71  29 2.71  17 2.78  27 2.78  14 2.79   8 2.79
                            20 2.87   5 2.87   4 2.88  31 2.88
   2  0.987  0.237  0.250-  28 2.44   1 2.71  32 2.71  18 2.78  15 2.79   5 2.79  14 2.82  25 2.82
                             6 2.85  17 2.85
   3  0.021  0.521  0.500-   4 2.59  31 2.59  18 2.61   7 2.61  19 2.78  16 2.79   6 2.79  26 2.81
                            15 2.81
   4  0.982  0.732  0.750-  26 2.41   3 2.59  30 2.59  27 2.69  16 2.69   7 2.78  13 2.80   1 2.88
                            32 2.88
   5  0.265  0.015  0.250-   9 2.60  24 2.60  17 2.69   6 2.69  19 2.74   8 2.74  21 2.78   2 2.79
                            12 2.79   1 2.87  32 2.87
   6  0.249  0.249  0.500-   5 2.69  20 2.69  18 2.71   7 2.71  22 2.78  32 2.78   9 2.79   3 2.79
                            29 2.85   2 2.85  21 2.87  10 2.87
   7  0.237  0.487  0.750-   3 2.61  30 2.61  17 2.71   6 2.71  29 2.78  23 2.78   4 2.78  10 2.79
                            22 2.85  11 2.85
   8  0.271  0.771  0.000-  24 2.31  23 2.61  12 2.61   5 2.74  20 2.74  30 2.78  11 2.79   1 2.79

   9  0.479  0.979  0.500-  19 2.31   5 2.60  20 2.60  12 2.73  23 2.73  25 2.78   6 2.79  16 2.79

  10  0.515  0.265  0.750-  14 2.60  25 2.60  22 2.69  11 2.69  20 2.78  26 2.78  13 2.78   7 2.79
                             6 2.87  17 2.87
  11  0.499  0.499  0.000-  10 2.69  21 2.69  12 2.71  23 2.71  17 2.78  27 2.78  14 2.79   8 2.79
                            18 2.85   7 2.85  26 2.87  15 2.87
  12  0.487  0.737  0.250-   8 2.61  19 2.61  11 2.71  22 2.71   9 2.73  24 2.73  18 2.78   5 2.79
                            15 2.79  16 2.85  27 2.85
  13  0.767  0.017  0.750-  29 2.44  25 2.59  14 2.59   1 2.68  32 2.68  10 2.78   4 2.80  16 2.88
                            27 2.88
  14  0.729  0.229  0.000-  13 2.59  28 2.59  21 2.60  10 2.60  24 2.78   1 2.79  11 2.79   2 2.82
                            29 2.82
  15  0.765  0.515  0.250-  31 2.41  27 2.69  16 2.69  21 2.78   2 2.79  12 2.79  30 2.81   3 2.81
                            22 2.87  11 2.87
  16  0.749  0.749  0.500-   4 2.69  31 2.69  26 2.69  15 2.69  22 2.78  32 2.78   9 2.79   3 2.79
                            23 2.85  12 2.85  13 2.88  28 2.88
  17  0.249  0.249  0.000-   5 2.69  20 2.69  18 2.71   7 2.71   1 2.78  11 2.78  24 2.79  30 2.79
                            29 2.85   2 2.85  21 2.87  10 2.87
  18  0.237  0.487  0.250-   3 2.61  30 2.61  17 2.71   6 2.71   2 2.78  12 2.78  31 2.78  21 2.79
                            11 2.85  22 2.85
  19  0.271  0.771  0.500-   9 2.31  12 2.61  23 2.61  20 2.74   5 2.74   3 2.78  22 2.79  32 2.79

  20  0.265  0.015  0.750-   9 2.60  24 2.60  17 2.69   6 2.69  19 2.74   8 2.74  10 2.78  23 2.79
                            29 2.79   1 2.87  32 2.87
  21  0.515  0.265  0.250-  14 2.60  25 2.60  22 2.69  11 2.69   5 2.78  15 2.78  28 2.78  18 2.79
                             6 2.87  17 2.87
  22  0.499  0.499  0.500-  10 2.69  21 2.69  12 2.71  23 2.71   6 2.78  16 2.78  25 2.79  19 2.79
                             7 2.85  18 2.85  15 2.87  26 2.87
  23  0.487  0.737  0.750-   8 2.61  19 2.61  11 2.71  22 2.71   9 2.73  24 2.73   7 2.78  20 2.79
                            26 2.79  16 2.85  27 2.85
  24  0.479  0.979  0.000-   8 2.31   5 2.60  20 2.60  12 2.73  23 2.73  14 2.78  17 2.79  27 2.79

  25  0.729  0.229  0.500-  13 2.59  28 2.59  21 2.60  10 2.60   9 2.78  22 2.79  32 2.79  29 2.82
                             2 2.82
  26  0.765  0.515  0.750-   4 2.41  16 2.69  27 2.69  10 2.78  23 2.79  29 2.79   3 2.81  30 2.81
                            11 2.87  22 2.87
  27  0.749  0.749  0.000-   4 2.69  31 2.69  26 2.69  15 2.69  11 2.78   1 2.78  24 2.79  30 2.79
                            12 2.85  23 2.85  13 2.88  28 2.88
  28  0.767  0.017  0.250-   2 2.44  14 2.59  25 2.59   1 2.68  32 2.68  21 2.78  31 2.80  16 2.88
                            27 2.88
  29  0.987  0.237  0.750-  13 2.44   1 2.71  32 2.71   7 2.78  26 2.79  20 2.79  14 2.82  25 2.82
                             6 2.85  17 2.85
  30  0.021  0.521  0.000-   4 2.59  31 2.59  18 2.61   7 2.61   8 2.78  27 2.79  17 2.79  15 2.81
                            26 2.81
  31  0.982  0.732  0.250-  15 2.41   3 2.59  30 2.59  27 2.69  16 2.69  18 2.78  28 2.80   1 2.88
                            32 2.88
  32  0.999  0.999  0.500-  13 2.68  28 2.68   2 2.71  29 2.71   6 2.78  16 2.78  25 2.79  19 2.79
                            20 2.87   5 2.87   4 2.88  31 2.88
 

IMPORTANT INFORMATION: All symmetrisations will be switched off!
NOSYMM: (Re-)initialisation of all symmetry stuff for point group C_1.

 
 
 KPOINTS: Server version 2017.10.18. K-point grid 
  k-points in reciprocal lattice
Space group operators:
 irot       det(A)        alpha          n_x          n_y          n_z        tau_x        tau_y        tau_z
    1     1.000000     0.000000     1.000000     0.000000     0.000000     0.000000     0.000000     0.000000


--------------------------------------------------------------------------------------------------------




 Dimension of arrays:
   k-points           NKPTS =     24   k-points in BZ     NKDIM =     24   number of bands    NBANDS=    307
   number of dos      NEDOS =    301   number of ions     NIONS =     32
   non local maximal  LDIM  =      6   non local SUM 2l+1 LMDIM =     18
   total plane-waves  NPLWV = 110592
   max r-space proj   IRMAX =   5103   max aug-charges    IRDMAX=   9337
   dimension x,y,z NGX =    48 NGY =   48 NGZ =   48
   dimension x,y,z NGXF=    96 NGYF=   96 NGZF=   96
   support grid    NGXF=    96 NGYF=   96 NGZF=   96
   ions per type =              32
 NGX,Y,Z   is equivalent  to a cutoff of  10.16, 10.16, 10.16 a.u.
 NGXF,Y,Z  is equivalent  to a cutoff of  20.32, 20.32, 20.32 a.u.


 I would recommend the setting:
   dimension x,y,z NGX =    44 NGY =   44 NGZ =   44
 SYSTEM =  unknown system                          
 POSCAR =  Pd                                      

 Startparameter for this run:
   NWRITE =      2    write-flag & timer
   PREC   = a         normal or accurate (medium, high low for compatibility)
   ISTART =      0    job   : 0-new  1-cont  2-samecut
   ICHARG =      2    charge: 1-file 2-atom 10-const
   ISPIN  =      1    spin polarized calculation?
   LNONCOLLINEAR =      F non collinear calculations
   LSORBIT =      F    spin-orbit coupling
   INIWAV =      1    electr: 0-lowe 1-rand  2-diag
   LASPH  =      F    aspherical Exc in radial PAW
   METAGGA=      F    non-selfconsistent MetaGGA calc.

 Electronic Relaxation 1
   ENCUT  =  300.0 eV  22.05 Ry    4.70 a.u.  11.09 11.09 11.09*2*pi/ulx,y,z
   ENINI  =  300.0     initial cutoff
   ENAUG  =  473.1 eV  augmentation charge cutoff
   NELM   =     60;   NELMIN=  2; NELMDL= -5     # of ELM steps 
   EDIFF  = 0.1E-04   stopping-criterion for ELM
   LREAL  =      T    real-space projection
   NLSPLINE    = F    spline interpolate recip. space projectors
   LCOMPAT=      F    compatible to vasp.4.4
   GGA_COMPAT  = T    GGA compatible to vasp.4.4-vasp.4.6
   LMAXPAW     = -100 max onsite density
   LMAXMIX     =    2 max onsite mixed and CHGCAR
   VOSKOWN=      0    Vosko Wilk Nusair interpolation
   ROPT   =   -0.00025
 Ionic relaxation
   EDIFFG = 0.1E-03   stopping-criterion for IOM
   NSW    =      0    number of steps for IOM
   NBLOCK =      1;   KBLOCK =      1    inner block; outer block 
   IBRION =     -1    ionic relax: 0-MD 1-quasi-New 2-CG
   NFREE  =      0    steps in history (QN), initial steepest desc. (CG)
   ISIF   =      2    stress and relaxation
   IWAVPR =      0    prediction:  0-non 1-charg 2-wave 3-comb
   ISYM   =      0    0-nonsym 1-usesym 2-fastsym
   LCORR  =      T    Harris-Foulkes like correction to forces

   POTIM  = 0.5000    time-step for ionic-motion
   TEIN   =    0.0    initial temperature
   TEBEG  =    0.0;   TEEND  =   0.0 temperature during run
   SMASS  =  -3.00    Nose mass-parameter (am)
   estimated Nose-frequenzy (Omega)   =  0.10E-29 period in steps =****** mass=  -0.141E-26a.u.
   SCALEE = 1.0000    scale energy and forces
   NPACO  =    256;   APACO  = 16.0  distance and # of slots for P.C.
   PSTRESS=    0.0 pullay stress

  Mass of Ions in am
   POMASS = 106.42
  Ionic Valenz
   ZVAL   =  16.00
  Atomic Wigner-Seitz radii
   RWIGS  =  -1.00
  virtual crystal weights 
   VCA    =   1.00
   NELECT =     512.0000    total number of electrons
   NUPDOWN=      -1.0000    fix difference up-down

 DOS related values:
   EMIN   =  10.00;   EMAX   =-10.00  energy-range for DOS
   EFERMI =   0.00
   ISMEAR =     1;   SIGMA  =   0.10  broadening in eV -4-tet -1-fermi 0-gaus

 Electronic relaxation 2 (details)
   IALGO  =     38    algorithm
   LDIAG  =      T    sub-space diagonalisation (order eigenvalues)
   LSUBROT=      T    optimize rotation matrix (better conditioning)
   TURBO    =      0    0=normal 1=particle mesh
   IRESTART =      0    0=no restart 2=restart with 2 vectors
   NREBOOT  =      0    no. of reboots
   NMIN     =      0    reboot dimension
   EREF     =   0.00    reference energy to select bands
   IMIX   =      4    mixing-type and parameters
     AMIX     =   0.40;   BMIX     =  1.00
     AMIX_MAG =   1.60;   BMIX_MAG =  1.00
     AMIN     =   0.10
     WC   =   100.;   INIMIX=   1;  MIXPRE=   1;  MAXMIX= -45

 Intra band minimization:
   WEIMIN = 0.0000     energy-eigenvalue tresh-hold
   EBREAK =  0.81E-08  absolut break condition
   DEPER  =   0.30     relativ break condition  

   TIME   =   0.40     timestep for ELM

  volume/ion in A,a.u.               =      15.14       102.17
  Fermi-wavevector in a.u.,A,eV,Ry     =   1.667531  3.151177 37.833172  2.780660
  Thomas-Fermi vector in A             =   2.753537
 
 Write flags
   LWAVE  =      F    write WAVECAR
   LCHARG =      T    write CHGCAR
   LVTOT  =      F    write LOCPOT, total local potential
   LVHAR  =      F    write LOCPOT, Hartree potential only
   LELF   =      F    write electronic localiz. function (ELF)
   LORBIT =      0    0 simple, 1 ext, 2 COOP (PROOUT)


 Dipole corrections
   LMONO  =      F    monopole corrections only (constant potential shift)
   LDIPOL =      F    correct potential (dipole corrections)
   IDIPOL =      0    1-x, 2-y, 3-z, 4-all directions 
   EPSILON=  1.0000000 bulk dielectric constant

 Exchange correlation treatment:
   GGA     =    --    GGA type
   LEXCH   =     8    internal setting for exchange type
   VOSKOWN=      0    Vosko Wilk Nusair interpolation
   LHFCALC =     F    Hartree Fock is set to
   LHFONE  =     F    Hartree Fock one center treatment
   AEXX    =    0.0000 exact exchange contribution

 Linear response parameters
   LEPSILON=     F    determine dielectric tensor
   LRPA    =     F    only Hartree local field effects (RPA)
   LNABLA  =     F    use nabla operator in PAW spheres
   LVEL    =     F    velocity operator in full k-point grid
   LINTERFAST=   F  fast interpolation
   KINTER  =     0    interpolate to denser k-point grid
   CSHIFT  =0.1000    complex shift for real part using Kramers Kronig
   OMEGAMAX=  -1.0    maximum frequency
   DEG_THRESHOLD= 0.2000000E-02 threshold for treating states as degnerate
   RTIME   =    0.100 relaxation time in fs

 Orbital magnetization related:
   ORBITALMAG=     F  switch on orbital magnetization
   LCHIMAG   =     F  perturbation theory with respect to B field
   DQ        =  0.001000  dq finite difference perturbation B field



--------------------------------------------------------------------------------------------------------


 Static calculation
 charge density and potential will be updated during run
 non-spin polarized calculation
 Variant of blocked Davidson
 Davidson routine will perform the subspace rotation
 perform sub-space diagonalisation
    after iterative eigenvector-optimisation
 modified Broyden-mixing scheme, WC =      100.0
 initial mixing is a Kerker type mixing with AMIX =  0.4000 and BMIX =      1.0000
 Hartree-type preconditioning will be used
 using additional bands           51
 real space projection scheme for non local part
 use partial core corrections
 calculate Harris-corrections to forces 
   (improved forces if not selfconsistent)
 use gradient corrections 
 use of overlap-Matrix (Vanderbilt PP)
 Methfessel and Paxton  Order N= 1 SIGMA  =   0.10


--------------------------------------------------------------------------------------------------------


  energy-cutoff  :      300.00
  volume of cell :      484.48
      direct lattice vectors                 reciprocal lattice vectors
     7.854000000 -0.000000000 -0.000000000     0.127323657  0.000000000 -0.000000000
    -0.000000000  7.854000000  0.000000000     0.000000000  0.127323657 -0.000000000
     0.000000000  0.000000000  7.854000000     0.000000000 -0.000000000  0.127323657

  length of vectors
     7.854000000  7.854000000  7.854000000     0.127323657  0.127323657  0.127323657


 
 k-points in units of 2pi/SCALE and weight: Server version 2017.10.18. K-point grid 
   0.03183091  0.01591546  0.11671335       0.042
   0.06366183  0.01591546  0.09549274       0.042
   0.09549274  0.01591546  0.07427213       0.042
   0.00000000  0.01591546  0.05305152       0.042
   0.03183091  0.01591546  0.03183091       0.042
   0.06366183  0.01591546  0.01061030       0.042
   0.09549274  0.01591546  0.11671335       0.042
   0.00000000  0.01591546  0.09549274       0.042
   0.03183091  0.01591546  0.07427213       0.042
   0.06366183  0.01591546  0.05305152       0.042
   0.09549274  0.01591546  0.03183091       0.042
   0.00000000  0.01591546  0.01061030       0.042
   0.03183091  0.04774637  0.09549274       0.042
   0.06366183  0.04774637  0.07427213       0.042
   0.09549274  0.04774637  0.05305152       0.042
   0.00000000  0.04774637  0.03183091       0.042
   0.03183091  0.04774637  0.01061030       0.042
   0.06366183  0.04774637  0.11671335       0.042
   0.09549274  0.04774637  0.09549274       0.042
   0.00000000  0.04774637  0.07427213       0.042
   0.03183091  0.04774637  0.05305152       0.042
   0.06366183  0.04774637  0.03183091       0.042
   0.09549274  0.04774637  0.01061030       0.042
   0.00000000  0.04774637  0.11671335       0.042
 
 k-points in reciprocal lattice and weights: Server version 2017.10.18. K-point grid 
   0.25000000  0.12500000  0.91666667       0.042
   0.50000000  0.12500000  0.75000000       0.042
   0.75000000  0.12500000  0.58333333       0.042
   0.00000000  0.12500000  0.41666667       0.042
   0.25000000  0.12500000  0.25000000       0.042
   0.50000000  0.12500000  0.08333333       0.042
   0.75000000  0.12500000  0.91666667       0.042
   0.00000000  0.12500000  0.75000000       0.042
   0.25000000  0.12500000  0.58333333       0.042
   0.50000000  0.12500000  0.41666667       0.042
   0.75000000  0.12500000  0.25000000       0.042
   0.00000000  0.12500000  0.08333333       0.042
   0.25000000  0.37500000  0.75000000       0.042
   0.50000000  0.37500000  0.58333333       0.042
   0.75000000  0.37500000  0.41666667       0.042
   0.00000000  0.37500000  0.25000000       0.042
   0.25000000  0.37500000  0.08333333       0.042
   0.50000000  0.37500000  0.91666667       0.042
   0.75000000  0.37500000  0.75000000       0.042
   0.00000000  0.37500000  0.58333333       0.042
   0.25000000  0.37500000  0.41666667       0.042
   0.50000000  0.37500000  0.25000000       0.042
   0.75000000  0.37500000  0.08333333       0.042
   0.00000000  0.37500000  0.91666667       0.042
 
 position of ions in fractional coordinates (direct lattice) 
   0.99905693  0.99905693  0.00000000
   0.98655624  0.23655624  0.25000000
   0.02106867  0.52106867  0.50000000
   0.98190351  0.73190351  0.75000000
   0.26485555  0.01485555  0.25000000
   0.24905693  0.24905693  0.50000000
   0.23655624  0.48655624  0.75000000
   0.27106867  0.77106867  0.00000000
   0.47870399  0.97870399  0.50000000
   0.51485555  0.26485555  0.75000000
   0.49905693  0.49905693  0.00000000
   0.48655624  0.73655624  0.25000000
   0.76702504  0.01702504  0.75000000
   0.72870399  0.22870399  0.00000000
   0.76485555  0.51485555  0.25000000
   0.74905693  0.74905693  0.50000000
   0.24905693  0.24905693  0.00000000
   0.23655624  0.48655624  0.25000000
   0.27106867  0.77106867  0.50000000
   0.26485555  0.01485555  0.75000000
   0.51485555  0.26485555  0.25000000
   0.49905693  0.49905693  0.50000000
   0.48655624  0.73655624  0.75000000
   0.47870399  0.97870399  0.00000000
   0.72870399  0.22870399  0.50000000
   0.76485555  0.51485555  0.75000000
   0.74905693  0.74905693  0.00000000
   0.76702504  0.01702504  0.25000000
   0.98655624  0.23655624  0.75000000
   0.02106867  0.52106867  0.00000000
   0.98190351  0.73190351  0.25000000
   0.99905693  0.99905693  0.50000000
 
 position of ions in cartesian coordinates  (Angst):
   7.84659314  7.84659314  0.00000000
   7.74841272  1.85791272  1.96350000
   0.16547330  4.09247330  3.92700000
   7.71187017  5.74837017  5.89050000
   2.08017551  0.11667551  1.96350000
   1.95609314  1.95609314  3.92700000
   1.85791272  3.82141272  5.89050000
   2.12897330  6.05597330  0.00000000
   3.75974110  7.68674110  3.92700000
   4.04367551  2.08017551  5.89050000
   3.91959314  3.91959314  0.00000000
   3.82141272  5.78491272  1.96350000
   6.02421468  0.13371468  5.89050000
   5.72324110  1.79624110 -0.00000000
   6.00717551  4.04367551  1.96350000
   5.88309314  5.88309314  3.92700000
   1.95609314  1.95609314  0.00000000
   1.85791272  3.82141272  1.96350000
   2.12897330  6.05597330  3.92700000
   2.08017551  0.11667551  5.89050000
   4.04367551  2.08017551  1.96350000
   3.91959314  3.91959314  3.92700000
   3.82141272  5.78491272  5.89050000
   3.75974110  7.68674110  0.00000000
   5.72324110  1.79624110  3.92700000
   6.00717551  4.04367551  5.89050000
   5.88309314  5.88309314  0.00000000
   6.02421468  0.13371468  1.96350000
   7.74841272  1.85791272  5.89050000
   0.16547330  4.09247330  0.00000000
   7.71187017  5.74837017  1.96350000
   7.84659314  7.84659314  3.92700000
 


--------------------------------------------------------------------------------------------------------


 k-point  1 :   0.2500 0.1250 0.9167  plane waves:    5707
 k-point  2 :   0.5000 0.1250 0.7500  plane waves:    5710
 k-point  3 :   0.7500 0.1250 0.5833  plane waves:    5715
 k-point  4 :   0.0000 0.1250 0.4167  plane waves:    5721
 k-point  5 :   0.2500 0.1250 0.2500  plane waves:    5714
 k-point  6 :   0.5000 0.1250 0.0833  plane waves:    5712
 k-point  7 :   0.7500 0.1250 0.9167  plane waves:    5707
 k-point  8 :   0.0000 0.1250 0.7500  plane waves:    5709
 k-point  9 :   0.2500 0.1250 0.5833  plane waves:    5715
 k-point 10 :   0.5000 0.1250 0.4167  plane waves:    5718
 k-point 11 :   0.7500 0.1250 0.2500  plane waves:    5714
 k-point 12 :   0.0000 0.1250 0.0833  plane waves:    5703
 k-point 13 :   0.2500 0.3750 0.7500  plane waves:    5726
 k-point 14 :   0.5000 0.3750 0.5833  plane waves:    5738
 k-point 15 :   0.7500 0.3750 0.4167  plane waves:    5731
 k-point 16 :   0.0000 0.3750 0.2500  plane waves:    5721
 k-point 17 :   0.2500 0.3750 0.0833  plane waves:    5713
 k-point 18 :   0.5000 0.3750 0.9167  plane waves:    5716
 k-point 19 :   0.7500 0.3750 0.7500  plane waves:    5726
 k-point 20 :   0.0000 0.3750 0.5833  plane waves:    5702
 k-point 21 :   0.2500 0.3750 0.4167  plane waves:    5731
 k-point 22 :   0.5000 0.3750 0.2500  plane waves:    5728
 k-point 23 :   0.7500 0.3750 0.0833  plane waves:    5713
 k-point 24 :   0.0000 0.3750 0.9167  plane waves:    5709

 maximum number of plane-waves:      5738
 maximum index in each direction: 
   IXMAX=   11   IYMAX=   10   IZMAX=   11
   IXMIN=  -11   IYMIN=  -11   IZMIN=  -12

 NGX is ok and might be reduce to  46
 NGY is ok and might be reduce to  44
 NGZ is ok and might be reduce to  48

 total amount of memory used by VASP on root node   850103. kBytes
========================================================================

   base      :      30000. kBytes
   nonlr-proj:      27745. kBytes
   grid      :      47517. kBytes
   one-center:        497. kBytes
   wavefun   :     744344. kBytes
 
 For storing wavefunctions  673.92 MBYTES are necessary
 For predicting wavefunctions   69.67 MBYTES are necessary
 Broyden mixing: mesh for mixing (old mesh)
   NGX = 23   NGY = 23   NGZ = 23
  (NGX  = 96   NGY  = 96   NGZ  = 96)
  gives a total of  12167 points

 initial charge density was supplied:
 charge density of overlapping atoms calculated
 number of electron     512.0000000 magnetization 
 keeping initial charge density in first step


--------------------------------------------------------------------------------------------------------


 Maximum index for non-local projection operator         4945
 Maximum index for augmentation-charges         8896 (set IRDMAX)


--------------------------------------------------------------------------------------------------------


 First call to EWALD:  gamma=   0.226
 Maximum number of real-space cells 3x 3x 3
 Maximum number of reciprocal cells 3x 3x 3

    FEWALD:  cpu time    0.01: real time    0.01


----------------------------------------- Iteration    1(   1)  ---------------------------------------


    POTLOK:  cpu time    0.91: real time    0.91
    SETDIJ:  cpu time    0.15: real time    0.15
     EDDAV:  cpu time  737.33: real time  737.46
       DOS:  cpu time    0.04: real time    0.04
    --------------------------------------------
      LOOP:  cpu time  738.44: real time  738.57

 eigenvalue-minimisations  : 15944
 total energy-change (2. order) : 0.5610630E+04  (-0.2285725E+05)
 number of electron     512.0000000 magnetization 
 augmentation part      512.0000000 magnetization 

 Free energy of the ion-electron system (eV)
  ---------------------------------------------------
  alpha Z        PSCENC =      4309.77481446
  Ewald energy   TEWEN  =    -68453.75447990
  -1/2 Hartree   DENC   =    -18267.78435996
  -exchange  EXHF       =         0.00000000
  -V(xc)+E(xc)   XCENC  =      2651.02606906
  PAW double counting   =     72255.69020719   -71333.34611920
  entropy T*S    EENTRO =        -0.00344641
  eigenvalues    EBANDS =       562.38639230
  atomic energy  EATOM  =     83886.64112113
  ---------------------------------------------------
  free energy    TOTEN  =      5610.63019868 eV

  energy without entropy =     5610.63364508  energy(sigma->0) =     5610.63134748


--------------------------------------------------------------------------------------------------------




----------------------------------------- Iteration    1(   2)  ---------------------------------------


     EDDAV:  cpu time  713.39: real time  713.47
       DOS:  cpu time    0.04: real time    0.04
    --------------------------------------------
      LOOP:  cpu time  713.43: real time  713.52

 eigenvalue-minimisations  : 15310
 total energy-change (2. order) :-0.5442217E+04  (-0.5275585E+04)
 number of electron     512.0000000 magnetization 
 augmentation part      512.0000000 magnetization 

 Free energy of the ion-electron system (eV)
  ---------------------------------------------------
  alpha Z        PSCENC =      4309.77481446
  Ewald energy   TEWEN  =    -68453.75447990
  -1/2 Hartree   DENC   =    -18267.78435996
  -exchange  EXHF       =         0.00000000
  -V(xc)+E(xc)   XCENC  =      2651.02606906
  PAW double counting   =     72255.69020719   -71333.34611920
  entropy T*S    EENTRO =         0.00177993
  eigenvalues    EBANDS =     -4879.83588092
  atomic energy  EATOM  =     83886.64112113
  ---------------------------------------------------
  free energy    TOTEN  =       168.41315180 eV

  energy without entropy =      168.41137186  energy(sigma->0) =      168.41255849


--------------------------------------------------------------------------------------------------------




----------------------------------------- Iteration    1(   3)  ---------------------------------------


     EDDAV:  cpu time  726.36: real time  726.44
       DOS:  cpu time    0.04: real time    0.04
    --------------------------------------------
      LOOP:  cpu time  726.40: real time  726.49

 eigenvalue-minimisations  : 15637
 total energy-change (2. order) :-0.3297226E+03  (-0.2976733E+03)
 number of electron     512.0000000 magnetization 
 augmentation part      512.0000000 magnetization 

 Free energy of the ion-electron system (eV)
  ---------------------------------------------------
  alpha Z        PSCENC =      4309.77481446
  Ewald energy   TEWEN  =    -68453.75447990
  -1/2 Hartree   DENC   =    -18267.78435996
  -exchange  EXHF       =         0.00000000
  -V(xc)+E(xc)   XCENC  =      2651.02606906
  PAW double counting   =     72255.69020719   -71333.34611920
  entropy T*S    EENTRO =         0.01108920
  eigenvalues    EBANDS =     -5209.56774775
  atomic energy  EATOM  =     83886.64112113
  ---------------------------------------------------
  free energy    TOTEN  =      -161.30940576 eV

  energy without entropy =     -161.32049497  energy(sigma->0) =     -161.31310217


--------------------------------------------------------------------------------------------------------




----------------------------------------- Iteration    1(   4)  ---------------------------------------


     EDDAV:  cpu time  723.02: real time  723.12
       DOS:  cpu time    0.04: real time    0.04
    --------------------------------------------
      LOOP:  cpu time  723.06: real time  723.16

 eigenvalue-minimisations  : 15549
 total energy-change (2. order) :-0.8419949E+01  (-0.8346609E+01)
 number of electron     512.0000000 magnetization 
 augmentation part      512.0000000 magnetization 

 Free energy of the ion-electron system (eV)
  ---------------------------------------------------
  alpha Z        PSCENC =      4309.77481446
  Ewald energy   TEWEN  =    -68453.75447990
  -1/2 Hartree   DENC   =    -18267.78435996
  -exchange  EXHF       =         0.00000000
  -V(xc)+E(xc)   XCENC  =      2651.02606906
  PAW double counting   =     72255.69020719   -71333.34611920
  entropy T*S    EENTRO =         0.01013386
  eigenvalues    EBANDS =     -5217.98674168
  atomic energy  EATOM  =     83886.64112113
  ---------------------------------------------------
  free energy    TOTEN  =      -169.72935503 eV

  energy without entropy =     -169.73948889  energy(sigma->0) =     -169.73273299


--------------------------------------------------------------------------------------------------------




----------------------------------------- Iteration    1(   5)  ---------------------------------------


     EDDAV:  cpu time  722.08: real time  722.17
       DOS:  cpu time    0.04: real time    0.04
    CHARGE:  cpu time   45.89: real time   45.89
    MIXING:  cpu time    0.02: real time    0.02
    --------------------------------------------
      LOOP:  cpu time  768.04: real time  768.13

 eigenvalue-minimisations  : 15512
 total energy-change (2. order) :-0.8517428E-01  (-0.8501379E-01)
 number of electron     511.9999525 magnetization 
 augmentation part      239.3860563 magnetization 

 Broyden mixing:
  rms(total) = 0.27544E+01    rms(broyden)= 0.27507E+01
  rms(prec ) = 0.34373E+01
  weight for this iteration     100.00

 Free energy of the ion-electron system (eV)
  ---------------------------------------------------
  alpha Z        PSCENC =      4309.77481446
  Ewald energy   TEWEN  =    -68453.75447990
  -1/2 Hartree   DENC   =    -18267.78435996
  -exchange  EXHF       =         0.00000000
  -V(xc)+E(xc)   XCENC  =      2651.02606906
  PAW double counting   =     72255.69020719   -71333.34611920
  entropy T*S    EENTRO =         0.01013242
  eigenvalues    EBANDS =     -5218.07191451
  atomic energy  EATOM  =     83886.64112113
  ---------------------------------------------------
  free energy    TOTEN  =      -169.81452931 eV

  energy without entropy =     -169.82466173  energy(sigma->0) =     -169.81790679


--------------------------------------------------------------------------------------------------------




----------------------------------------- Iteration    1(   6)  ---------------------------------------


    POTLOK:  cpu time    0.92: real time    0.92
    SETDIJ:  cpu time    0.16: real time    0.16
     EDDAV:  cpu time  716.45: real time  716.52
       DOS:  cpu time    0.04: real time    0.04
    CHARGE:  cpu time   45.46: real time   45.46
    MIXING:  cpu time    0.02: real time    0.02
    --------------------------------------------
      LOOP:  cpu time  763.04: real time  763.13

 eigenvalue-minimisations  : 15429
 total energy-change (2. order) : 0.7494540E+01  (-0.2792331E+01)
 number of electron     511.9999518 magnetization 
 augmentation part      245.3337100 magnetization 

 Broyden mixing:
  rms(total) = 0.77283E+00    rms(broyden)= 0.77249E+00
  rms(prec ) = 0.10569E+01
  weight for this iteration     100.00

 eigenvalues of (default mixing * dielectric matrix)
  average eigenvalue GAMMA=   1.1326
  1.1326

 Free energy of the ion-electron system (eV)
  ---------------------------------------------------
  alpha Z        PSCENC =      4309.77481446
  Ewald energy   TEWEN  =    -68453.75447990
  -1/2 Hartree   DENC   =    -17751.32347516
  -exchange  EXHF       =         0.00000000
  -V(xc)+E(xc)   XCENC  =      2628.44565137
  PAW double counting   =     74136.55001368   -73276.19444131
  entropy T*S    EENTRO =        -0.01123575
  eigenvalues    EBANDS =     -5642.44795736
  atomic energy  EATOM  =     83886.64112113
  ---------------------------------------------------
  free energy    TOTEN  =      -162.31998883 eV

  energy without entropy =     -162.30875308  energy(sigma->0) =     -162.31624358


--------------------------------------------------------------------------------------------------------




----------------------------------------- Iteration    1(   7)  ---------------------------------------


    POTLOK:  cpu time    0.93: real time    0.93
    SETDIJ:  cpu time    0.16: real time    0.16
     EDDAV:  cpu time  718.58: real time  718.66
       DOS:  cpu time    0.04: real time    0.04
    CHARGE:  cpu time   45.74: real time   45.75
    MIXING:  cpu time    0.02: real time    0.02
    --------------------------------------------
      LOOP:  cpu time  765.47: real time  765.56

 eigenvalue-minimisations  : 15568
 total energy-change (2. order) :-0.1482811E+01  (-0.4736968E+00)
 number of electron     511.9999524 magnetization 
 augmentation part      245.3184426 magnetization 

 Broyden mixing:
  rms(total) = 0.12121E+01    rms(broyden)= 0.12104E+01
  rms(prec ) = 0.24121E+01
  weight for this iteration     100.00

 eigenvalues of (default mixing * dielectric matrix)
  average eigenvalue GAMMA=   0.7567
  1.2172  0.2962

 Free energy of the ion-electron system (eV)
  ---------------------------------------------------
  alpha Z        PSCENC =      4309.77481446
  Ewald energy   TEWEN  =    -68453.75447990
  -1/2 Hartree   DENC   =    -17737.93721828
  -exchange  EXHF       =         0.00000000
  -V(xc)+E(xc)   XCENC  =      2627.65376995
  PAW double counting   =     75222.10833681   -74375.32896014
  entropy T*S    EENTRO =         0.00610152
  eigenvalues    EBANDS =     -5642.96628584
  atomic energy  EATOM  =     83886.64112113
  ---------------------------------------------------
  free energy    TOTEN  =      -163.80280029 eV

  energy without entropy =     -163.80890181  energy(sigma->0) =     -163.80483413


--------------------------------------------------------------------------------------------------------




----------------------------------------- Iteration    1(   8)  ---------------------------------------


    POTLOK:  cpu time    0.93: real time    0.93
    SETDIJ:  cpu time    0.16: real time    0.16
     EDDAV:  cpu time  752.54: real time  752.62
       DOS:  cpu time    0.04: real time    0.04
    CHARGE:  cpu time   45.81: real time   45.82
    MIXING:  cpu time    0.02: real time    0.02
    --------------------------------------------
      LOOP:  cpu time  799.50: real time  799.59

 eigenvalue-minimisations  : 16325
 total energy-change (2. order) : 0.1727996E+01  (-0.2237391E+00)
 number of electron     511.9999520 magnetization 
 augmentation part      245.3357827 magnetization 

 Broyden mixing:
  rms(total) = 0.46957E+00    rms(broyden)= 0.46694E+00
  rms(prec ) = 0.75407E+00
  weight for this iteration     100.00

 eigenvalues of (default mixing * dielectric matrix)
  average eigenvalue GAMMA=   0.7576
  1.3934  0.6344  0.2450

 Free energy of the ion-electron system (eV)
  ---------------------------------------------------
  alpha Z        PSCENC =      4309.77481446
  Ewald energy   TEWEN  =    -68453.75447990
  -1/2 Hartree   DENC   =    -17732.73496071
  -exchange  EXHF       =         0.00000000
  -V(xc)+E(xc)   XCENC  =      2627.42911434
  PAW double counting   =     75504.94911304   -74661.41457311
  entropy T*S    EENTRO =         0.00835754
  eigenvalues    EBANDS =     -5642.97331143
  atomic energy  EATOM  =     83886.64112113
  ---------------------------------------------------
  free energy    TOTEN  =      -162.07480464 eV

  energy without entropy =     -162.08316217  energy(sigma->0) =     -162.07759048


--------------------------------------------------------------------------------------------------------




----------------------------------------- Iteration    1(   9)  ---------------------------------------


    POTLOK:  cpu time    0.93: real time    0.93
    SETDIJ:  cpu time    0.16: real time    0.16
     EDDAV:  cpu time  721.55: real time  721.63
       DOS:  cpu time    0.04: real time    0.04
    CHARGE:  cpu time   45.37: real time   45.37
    MIXING:  cpu time    0.02: real time    0.02
    --------------------------------------------
      LOOP:  cpu time  768.07: real time  768.23

 eigenvalue-minimisations  : 15600
 total energy-change (2. order) : 0.7205476E-01  (-0.6312889E-01)
 number of electron     511.9999518 magnetization 
 augmentation part      245.3173232 magnetization 

 Broyden mixing:
  rms(total) = 0.36071E+00    rms(broyden)= 0.36001E+00
  rms(prec ) = 0.59431E+00
  weight for this iteration     100.00

 eigenvalues of (default mixing * dielectric matrix)
  average eigenvalue GAMMA=   0.9455
  2.3226  0.9732  0.2831  0.2032

 Free energy of the ion-electron system (eV)
  ---------------------------------------------------
  alpha Z        PSCENC =      4309.77481446
  Ewald energy   TEWEN  =    -68453.75447990
  -1/2 Hartree   DENC   =    -17728.35436279
  -exchange  EXHF       =         0.00000000
  -V(xc)+E(xc)   XCENC  =      2627.22331287
  PAW double counting   =     75780.03271121   -74939.19608108
  entropy T*S    EENTRO =        -0.00413105
  eigenvalues    EBANDS =     -5644.36565473
  atomic energy  EATOM  =     83886.64112113
  ---------------------------------------------------
  free energy    TOTEN  =      -162.00274988 eV

  energy without entropy =     -161.99861883  energy(sigma->0) =     -162.00137286


--------------------------------------------------------------------------------------------------------




----------------------------------------- Iteration    1(  10)  ---------------------------------------


    POTLOK:  cpu time    0.92: real time    0.92
    SETDIJ:  cpu time    0.16: real time    0.16
     EDDAV:  cpu time  721.98: real time  722.06
       DOS:  cpu time    0.04: real time    0.04
    CHARGE:  cpu time   45.23: real time   45.23
    MIXING:  cpu time    0.02: real time    0.02
    --------------------------------------------
      LOOP:  cpu time  768.36: real time  768.45

 eigenvalue-minimisations  : 15608
 total energy-change (2. order) :-0.7801321E-01  (-0.5052907E-01)
 number of electron     511.9999518 magnetization 
 augmentation part      245.3355687 magnetization 

 Broyden mixing:
  rms(total) = 0.38481E+00    rms(broyden)= 0.38397E+00
  rms(prec ) = 0.81436E+00
  weight for this iteration     100.00

 eigenvalues of (default mixing * dielectric matrix)
  average eigenvalue GAMMA=   0.8367
  2.4954  0.9897  0.2750  0.2497  0.1737

 Free energy of the ion-electron system (eV)
  ---------------------------------------------------
  alpha Z        PSCENC =      4309.77481446
  Ewald energy   TEWEN  =    -68453.75447990
  -1/2 Hartree   DENC   =    -17715.37544208
  -exchange  EXHF       =         0.00000000
  -V(xc)+E(xc)   XCENC  =      2626.59160203
  PAW double counting   =     76568.20561391   -75734.85660549
  entropy T*S    EENTRO =        -0.00518605
  eigenvalues    EBANDS =     -5649.30220110
  atomic energy  EATOM  =     83886.64112113
  ---------------------------------------------------
  free energy    TOTEN  =      -162.08076309 eV

  energy without entropy =     -162.07557704  energy(sigma->0) =     -162.07903441


--------------------------------------------------------------------------------------------------------




----------------------------------------- Iteration    1(  11)  ---------------------------------------


    POTLOK:  cpu time    0.93: real time    0.93
    SETDIJ:  cpu time    0.17: real time    0.17
     EDDAV:  cpu time  721.43: real time  721.51
       DOS:  cpu time    0.04: real time    0.04
    CHARGE:  cpu time   45.31: real time   45.32
    MIXING:  cpu time    0.02: real time    0.02
    --------------------------------------------
      LOOP:  cpu time  767.90: real time  767.99

 eigenvalue-minimisations  : 15576
 total energy-change (2. order) : 0.1486078E+00  (-0.2474404E-01)
 number of electron     511.9999519 magnetization 
 augmentation part      245.3451648 magnetization 

 Broyden mixing:
  rms(total) = 0.99916E-01    rms(broyden)= 0.98449E-01
  rms(prec ) = 0.19094E+00
  weight for this iteration     100.00

 eigenvalues of (default mixing * dielectric matrix)
  average eigenvalue GAMMA=   0.7469
  2.4985  0.9895  0.3000  0.3000  0.2226  0.1709

 Free energy of the ion-electron system (eV)
  ---------------------------------------------------
  alpha Z        PSCENC =      4309.77481446
  Ewald energy   TEWEN  =    -68453.75447990
  -1/2 Hartree   DENC   =    -17710.40483538
  -exchange  EXHF       =         0.00000000
  -V(xc)+E(xc)   XCENC  =      2626.36015194
  PAW double counting   =     76864.59776767   -76033.82379509
  entropy T*S    EENTRO =        -0.00204230
  eigenvalues    EBANDS =     -5651.32085779
  atomic energy  EATOM  =     83886.64112113
  ---------------------------------------------------
  free energy    TOTEN  =      -161.93215525 eV

  energy without entropy =     -161.93011295  energy(sigma->0) =     -161.93147449


--------------------------------------------------------------------------------------------------------




----------------------------------------- Iteration    1(  12)  ---------------------------------------


    POTLOK:  cpu time    0.92: real time    0.92
    SETDIJ:  cpu time    0.16: real time    0.16
     EDDAV:  cpu time  720.58: real time  720.66
       DOS:  cpu time    0.04: real time    0.04
    CHARGE:  cpu time   45.43: real time   45.43
    MIXING:  cpu time    0.02: real time    0.02
    --------------------------------------------
      LOOP:  cpu time  767.15: real time  767.24

 eigenvalue-minimisations  : 15541
 total energy-change (2. order) : 0.8579382E-02  (-0.3180037E-02)
 number of electron     511.9999519 magnetization 
 augmentation part      245.3441531 magnetization 

 Broyden mixing:
  rms(total) = 0.38507E-01    rms(broyden)= 0.38290E-01
  rms(prec ) = 0.69136E-01
  weight for this iteration     100.00

 eigenvalues of (default mixing * dielectric matrix)
  average eigenvalue GAMMA=   0.7686
  2.4912  0.9679  0.9679  0.2885  0.2885  0.2081  0.1679

 Free energy of the ion-electron system (eV)
  ---------------------------------------------------
  alpha Z        PSCENC =      4309.77481446
  Ewald energy   TEWEN  =    -68453.75447990
  -1/2 Hartree   DENC   =    -17710.22958006
  -exchange  EXHF       =         0.00000000
  -V(xc)+E(xc)   XCENC  =      2626.35546389
  PAW double counting   =     76880.28554079   -76049.35361842
  entropy T*S    EENTRO =        -0.00064582
  eigenvalues    EBANDS =     -5651.64219195
  atomic energy  EATOM  =     83886.64112113
  ---------------------------------------------------
  free energy    TOTEN  =      -161.92357587 eV

  energy without entropy =     -161.92293005  energy(sigma->0) =     -161.92336060


--------------------------------------------------------------------------------------------------------




----------------------------------------- Iteration    1(  13)  ---------------------------------------


    POTLOK:  cpu time    0.93: real time    0.93
    SETDIJ:  cpu time    0.16: real time    0.16
     EDDAV:  cpu time  727.79: real time  727.88
       DOS:  cpu time    0.04: real time    0.04
    CHARGE:  cpu time   45.52: real time   45.52
    MIXING:  cpu time    0.02: real time    0.02
    --------------------------------------------
      LOOP:  cpu time  774.46: real time  774.56

 eigenvalue-minimisations  : 15808
 total energy-change (2. order) :-0.1142365E-02  (-0.1079085E-02)
 number of electron     511.9999518 magnetization 
 augmentation part      245.3537732 magnetization 

 Broyden mixing:
  rms(total) = 0.48823E-01    rms(broyden)= 0.48709E-01
  rms(prec ) = 0.10385E+00
  weight for this iteration     100.00

 eigenvalues of (default mixing * dielectric matrix)
  average eigenvalue GAMMA=   0.7263
  2.4964  1.1475  0.9914  0.2910  0.2910  0.2315  0.1958  0.1657

 Free energy of the ion-electron system (eV)
  ---------------------------------------------------
  alpha Z        PSCENC =      4309.77481446
  Ewald energy   TEWEN  =    -68453.75447990
  -1/2 Hartree   DENC   =    -17710.22108764
  -exchange  EXHF       =         0.00000000
  -V(xc)+E(xc)   XCENC  =      2626.36024483
  PAW double counting   =     76904.59306021   -76072.90516001
  entropy T*S    EENTRO =         0.00092762
  eigenvalues    EBANDS =     -5652.41415894
  atomic energy  EATOM  =     83886.64112113
  ---------------------------------------------------
  free energy    TOTEN  =      -161.92471823 eV

  energy without entropy =     -161.92564585  energy(sigma->0) =     -161.92502744


--------------------------------------------------------------------------------------------------------




----------------------------------------- Iteration    1(  14)  ---------------------------------------


    POTLOK:  cpu time    0.94: real time    0.94
    SETDIJ:  cpu time    0.17: real time    0.17
     EDDAV:  cpu time  719.98: real time  720.06
       DOS:  cpu time    0.04: real time    0.04
    CHARGE:  cpu time   45.67: real time   45.67
    MIXING:  cpu time    0.02: real time    0.02
    --------------------------------------------
      LOOP:  cpu time  766.82: real time  766.92

 eigenvalue-minimisations  : 15544
 total energy-change (2. order) : 0.2242702E-02  (-0.5066770E-03)
 number of electron     511.9999519 magnetization 
 augmentation part      245.3556429 magnetization 

 Broyden mixing:
  rms(total) = 0.16412E-01    rms(broyden)= 0.16224E-01
  rms(prec ) = 0.30542E-01
  weight for this iteration     100.00

 eigenvalues of (default mixing * dielectric matrix)
  average eigenvalue GAMMA=   0.7457
  2.5144  1.3926  0.9773  0.6622  0.3020  0.3020  0.2149  0.1804  0.1656

 Free energy of the ion-electron system (eV)
  ---------------------------------------------------
  alpha Z        PSCENC =      4309.77481446
  Ewald energy   TEWEN  =    -68453.75447990
  -1/2 Hartree   DENC   =    -17710.33833179
  -exchange  EXHF       =         0.00000000
  -V(xc)+E(xc)   XCENC  =      2626.36934181
  PAW double counting   =     76919.62664680   -76087.48512626
  entropy T*S    EENTRO =         0.00102266
  eigenvalues    EBANDS =     -5652.75748445
  atomic energy  EATOM  =     83886.64112113
  ---------------------------------------------------
  free energy    TOTEN  =      -161.92247553 eV

  energy without entropy =     -161.92349820  energy(sigma->0) =     -161.92281642


--------------------------------------------------------------------------------------------------------




----------------------------------------- Iteration    1(  15)  ---------------------------------------


    POTLOK:  cpu time    0.94: real time    0.94
    SETDIJ:  cpu time    0.16: real time    0.16
     EDDAV:  cpu time  721.88: real time  721.95
       DOS:  cpu time    0.04: real time    0.04
    CHARGE:  cpu time   46.20: real time   46.20
    MIXING:  cpu time    0.03: real time    0.03
    --------------------------------------------
      LOOP:  cpu time  769.24: real time  769.33

 eigenvalue-minimisations  : 15592
 total energy-change (2. order) : 0.1102520E-04  (-0.1269974E-03)
 number of electron     511.9999519 magnetization 
 augmentation part      245.3551645 magnetization 

 Broyden mixing:
  rms(total) = 0.14637E-01    rms(broyden)= 0.14610E-01
  rms(prec ) = 0.29115E-01
  weight for this iteration     100.00

 eigenvalues of (default mixing * dielectric matrix)
  average eigenvalue GAMMA=   0.7616
  2.5522  1.8037  0.9476  0.8990  0.3035  0.3035  0.2557  0.2091  0.1647  0.1767

 Free energy of the ion-electron system (eV)
  ---------------------------------------------------
  alpha Z        PSCENC =      4309.77481446
  Ewald energy   TEWEN  =    -68453.75447990
  -1/2 Hartree   DENC   =    -17710.68900438
  -exchange  EXHF       =         0.00000000
  -V(xc)+E(xc)   XCENC  =      2626.38536295
  PAW double counting   =     76929.46934682   -76096.99768223
  entropy T*S    EENTRO =         0.00099077
  eigenvalues    EBANDS =     -5652.75293413
  atomic energy  EATOM  =     83886.64112113
  ---------------------------------------------------
  free energy    TOTEN  =      -161.92246451 eV

  energy without entropy =     -161.92345528  energy(sigma->0) =     -161.92279476


--------------------------------------------------------------------------------------------------------




----------------------------------------- Iteration    1(  16)  ---------------------------------------


    POTLOK:  cpu time    0.94: real time    0.94
    SETDIJ:  cpu time    0.17: real time    0.17
     EDDAV:  cpu time  717.19: real time  717.27
       DOS:  cpu time    0.04: real time    0.04
    CHARGE:  cpu time   45.99: real time   45.99
    MIXING:  cpu time    0.03: real time    0.03
    --------------------------------------------
      LOOP:  cpu time  764.36: real time  764.45

 eigenvalue-minimisations  : 15552
 total energy-change (2. order) : 0.1598636E-03  (-0.5726376E-04)
 number of electron     511.9999519 magnetization 
 augmentation part      245.3539456 magnetization 

 Broyden mixing:
  rms(total) = 0.73383E-02    rms(broyden)= 0.73053E-02
  rms(prec ) = 0.14269E-01
  weight for this iteration     100.00

 eigenvalues of (default mixing * dielectric matrix)
  average eigenvalue GAMMA=   0.7307
  2.5622  1.8559  0.9452  0.9452  0.3619  0.2989  0.2989  0.2144  0.2144  0.1647
  0.1754

 Free energy of the ion-electron system (eV)
  ---------------------------------------------------
  alpha Z        PSCENC =      4309.77481446
  Ewald energy   TEWEN  =    -68453.75447990
  -1/2 Hartree   DENC   =    -17711.19831332
  -exchange  EXHF       =         0.00000000
  -V(xc)+E(xc)   XCENC  =      2626.40869811
  PAW double counting   =     76940.65041994   -76107.72145977
  entropy T*S    EENTRO =         0.00073253
  eigenvalues    EBANDS =     -5652.72383783
  atomic energy  EATOM  =     83886.64112113
  ---------------------------------------------------
  free energy    TOTEN  =      -161.92230464 eV

  energy without entropy =     -161.92303717  energy(sigma->0) =     -161.92254882


--------------------------------------------------------------------------------------------------------




----------------------------------------- Iteration    1(  17)  ---------------------------------------


    POTLOK:  cpu time    0.93: real time    0.93
    SETDIJ:  cpu time    0.16: real time    0.16
     EDDAV:  cpu time  714.55: real time  714.64
       DOS:  cpu time    0.04: real time    0.04
    CHARGE:  cpu time   45.27: real time   45.27
    MIXING:  cpu time    0.03: real time    0.03
    --------------------------------------------
      LOOP:  cpu time  760.98: real time  761.08

 eigenvalue-minimisations  : 15560
 total energy-change (2. order) : 0.5483565E-04  (-0.1625889E-04)
 number of electron     511.9999519 magnetization 
 augmentation part      245.3532464 magnetization 

 Broyden mixing:
  rms(total) = 0.25209E-02    rms(broyden)= 0.24944E-02
  rms(prec ) = 0.41168E-02
  weight for this iteration     100.00

 eigenvalues of (default mixing * dielectric matrix)
  average eigenvalue GAMMA=   0.7627
  2.5597  1.9218  1.1347  1.0018  0.8737  0.3014  0.3014  0.2984  0.2138  0.2057
  0.1645  0.1752

 Free energy of the ion-electron system (eV)
  ---------------------------------------------------
  alpha Z        PSCENC =      4309.77481446
  Ewald energy   TEWEN  =    -68453.75447990
  -1/2 Hartree   DENC   =    -17711.37992792
  -exchange  EXHF       =         0.00000000
  -V(xc)+E(xc)   XCENC  =      2626.41646222
  PAW double counting   =     76943.11532575   -76110.05107518
  entropy T*S    EENTRO =         0.00065571
  eigenvalues    EBANDS =     -5652.68514608
  atomic energy  EATOM  =     83886.64112113
  ---------------------------------------------------
  free energy    TOTEN  =      -161.92224981 eV

  energy without entropy =     -161.92290552  energy(sigma->0) =     -161.92246838


--------------------------------------------------------------------------------------------------------




----------------------------------------- Iteration    1(  18)  ---------------------------------------


    POTLOK:  cpu time    0.91: real time    0.92
    SETDIJ:  cpu time    0.15: real time    0.15
     EDDAV:  cpu time  516.59: real time  516.63
       DOS:  cpu time    0.04: real time    0.04
    CHARGE:  cpu time   44.57: real time   44.58
    MIXING:  cpu time    0.03: real time    0.03
    --------------------------------------------
      LOOP:  cpu time  562.30: real time  562.35

 eigenvalue-minimisations  : 10928
 total energy-change (2. order) : 0.1305752E-04  (-0.3821274E-05)
 number of electron     511.9999519 magnetization 
 augmentation part      245.3526204 magnetization 

 Broyden mixing:
  rms(total) = 0.24228E-02    rms(broyden)= 0.24194E-02
  rms(prec ) = 0.42241E-02
  weight for this iteration     100.00

 eigenvalues of (default mixing * dielectric matrix)
  average eigenvalue GAMMA=   0.7578
  2.5548  2.0261  1.3820  0.9451  0.9451  0.3525  0.3024  0.3024  0.2830  0.2150
  0.2038  0.1645  0.1751

 Free energy of the ion-electron system (eV)
  ---------------------------------------------------
  alpha Z        PSCENC =      4309.77481446
  Ewald energy   TEWEN  =    -68453.75447990
  -1/2 Hartree   DENC   =    -17711.65541046
  -exchange  EXHF       =         0.00000000
  -V(xc)+E(xc)   XCENC  =      2626.42784206
  PAW double counting   =     76944.58511577   -76111.31243201
  entropy T*S    EENTRO =         0.00067462
  eigenvalues    EBANDS =     -5652.62948242
  atomic energy  EATOM  =     83886.64112113
  ---------------------------------------------------
  free energy    TOTEN  =      -161.92223675 eV

  energy without entropy =     -161.92291137  energy(sigma->0) =     -161.92246162


--------------------------------------------------------------------------------------------------------




----------------------------------------- Iteration    1(  19)  ---------------------------------------


    POTLOK:  cpu time    0.92: real time    0.92
    SETDIJ:  cpu time    0.15: real time    0.15
     EDDAV:  cpu time  404.78: real time  404.81
       DOS:  cpu time    0.04: real time    0.04
    CHARGE:  cpu time   42.86: real time   42.86
    MIXING:  cpu time    0.02: real time    0.03
    --------------------------------------------
      LOOP:  cpu time  448.78: real time  448.82

 eigenvalue-minimisations  :  7984
 total energy-change (2. order) : 0.1605117E-04  (-0.1359927E-05)
 number of electron     511.9999519 magnetization 
 augmentation part      245.3525040 magnetization 

 Broyden mixing:
  rms(total) = 0.67306E-03    rms(broyden)= 0.66771E-03
  rms(prec ) = 0.99365E-03
  weight for this iteration     100.00

 eigenvalues of (default mixing * dielectric matrix)
  average eigenvalue GAMMA=   0.7923
  2.5620  2.2955  1.5309  0.9508  0.9508  0.8248  0.3439  0.3013  0.3013  0.2729
  0.2139  0.2041  0.1645  0.1751

 Free energy of the ion-electron system (eV)
  ---------------------------------------------------
  alpha Z        PSCENC =      4309.77481446
  Ewald energy   TEWEN  =    -68453.75447990
  -1/2 Hartree   DENC   =    -17711.79158099
  -exchange  EXHF       =         0.00000000
  -V(xc)+E(xc)   XCENC  =      2626.43347874
  PAW double counting   =     76945.19483145   -76111.80822657
  entropy T*S    EENTRO =         0.00068524
  eigenvalues    EBANDS =     -5652.61286426
  atomic energy  EATOM  =     83886.64112113
  ---------------------------------------------------
  free energy    TOTEN  =      -161.92222070 eV

  energy without entropy =     -161.92290594  energy(sigma->0) =     -161.92244911


--------------------------------------------------------------------------------------------------------




----------------------------------------- Iteration    1(  20)  ---------------------------------------


    POTLOK:  cpu time    0.88: real time    0.89
    SETDIJ:  cpu time    0.14: real time    0.14
     EDDAV:  cpu time  381.89: real time  381.92
       DOS:  cpu time    0.04: real time    0.04
    --------------------------------------------
      LOOP:  cpu time  382.96: real time  383.00

 eigenvalue-minimisations  :  7704
 total energy-change (2. order) : 0.5700902E-05  (-0.4107471E-06)
 number of electron     511.9999519 magnetization 
 augmentation part      245.3525040 magnetization 

 Free energy of the ion-electron system (eV)
  ---------------------------------------------------
  alpha Z        PSCENC =      4309.77481446
  Ewald energy   TEWEN  =    -68453.75447990
  -1/2 Hartree   DENC   =    -17711.87010999
  -exchange  EXHF       =         0.00000000
  -V(xc)+E(xc)   XCENC  =      2626.43672726
  PAW double counting   =     76945.64472077   -76112.18330262
  entropy T*S    EENTRO =         0.00067896
  eigenvalues    EBANDS =     -5652.61238506
  atomic energy  EATOM  =     83886.64112113
  ---------------------------------------------------
  free energy    TOTEN  =      -161.92221500 eV

  energy without entropy =     -161.92289396  energy(sigma->0) =     -161.92244132


--------------------------------------------------------------------------------------------------------




 average (electrostatic) potential at core
  the test charge radii are     1.0504
  (the norm of the test charge is              1.0000)
       1 -74.5706       2 -74.6384       3 -74.6872       4 -74.7810       5 -74.6726
       6 -74.5663       7 -74.6305       8 -74.8638       9 -74.8747      10 -74.6385
      11 -74.5651      12 -74.6693      13 -74.7562      14 -74.6835      15 -74.6703
      16 -74.5848      17 -74.5663      18 -74.6305      19 -74.8638      20 -74.6726
      21 -74.6385      22 -74.5651      23 -74.6693      24 -74.8747      25 -74.6835
      26 -74.6704      27 -74.5848      28 -74.7562      29 -74.6384      30 -74.6872
      31 -74.7810      32 -74.5706
 
 
 
 E-fermi :   9.2736     XC(G=0): -13.1736     alpha+bet :-16.1055


 k-point   1 :       0.2500    0.1250    0.9167
  band No.  band energies     occupation 
      1     -41.2990      2.00000
      2     -41.2904      2.00000
      3     -40.9715      2.00000
      4     -40.9517      2.00000
      5     -40.9059      2.00000
      6     -40.8875      2.00000
      7     -40.8257      2.00000
      8     -40.8244      2.00000
      9     -40.7982      2.00000
     10     -40.7914      2.00000
     11     -40.7718      2.00000
     12     -40.7666      2.00000
     13     -40.7531      2.00000
     14     -40.7416      2.00000
     15     -40.7309      2.00000
     16     -40.7280      2.00000
     17     -40.7100      2.00000
     18     -40.7046      2.00000
     19     -40.6949      2.00000
     20     -40.6902      2.00000
     21     -40.6806      2.00000
     22     -40.6768      2.00000
     23     -40.6683      2.00000
     24     -40.6592      2.00000
     25     -40.6459      2.00000
     26     -40.6301      2.00000
     27     -40.6243      2.00000
     28     -40.6232      2.00000
     29     -40.6176      2.00000
     30     -40.6166      2.00000
     31     -40.6066      2.00000
     32     -40.6031      2.00000
     33     -40.5921      2.00000
     34     -40.5913      2.00000
     35     -40.5774      2.00000
     36     -40.5747      2.00000
     37     -40.5677      2.00000
     38     -40.5604      2.00000
     39     -40.5584      2.00000
     40     -40.5416      2.00000
     41     -40.5359      2.00000
     42     -40.5272      2.00000
     43     -40.5268      2.00000
     44     -40.5243      2.00000
     45     -40.5199      2.00000
     46     -40.5178      2.00000
     47     -40.5131      2.00000
     48     -40.5065      2.00000
     49     -40.5025      2.00000
     50     -40.5003      2.00000
     51     -40.4980      2.00000
     52     -40.4882      2.00000
     53     -40.4875      2.00000
     54     -40.4815      2.00000
     55     -40.4813      2.00000
     56     -40.4762      2.00000
     57     -40.4719      2.00000
     58     -40.4667      2.00000
     59     -40.4612      2.00000
     60     -40.4547      2.00000
     61     -40.4537      2.00000
     62     -40.4497      2.00000
     63     -40.4464      2.00000
     64     -40.4416      2.00000
     65     -40.4360      2.00000
     66     -40.4344      2.00000
     67     -40.4312      2.00000
     68     -40.4282      2.00000
     69     -40.4266      2.00000
     70     -40.4235      2.00000
     71     -40.4196      2.00000
     72     -40.4189      2.00000
     73     -40.4139      2.00000
     74     -40.4094      2.00000
     75     -40.4015      2.00000
     76     -40.3981      2.00000
     77     -40.3955      2.00000
     78     -40.3901      2.00000
     79     -40.3900      2.00000
     80     -40.3881      2.00000
     81     -40.3835      2.00000
     82     -40.3744      2.00000
     83     -40.3653      2.00000
     84     -40.3596      2.00000
     85     -40.3568      2.00000
     86     -40.3548      2.00000
     87     -40.3540      2.00000
     88     -40.3477      2.00000
     89     -40.3383      2.00000
     90     -40.3364      2.00000
     91     -40.3357      2.00000
     92     -40.3329      2.00000
     93     -40.3258      2.00000
     94     -40.3233      2.00000
     95     -40.3083      2.00000
     96     -40.3068      2.00000
     97       2.4830      2.00000
     98       3.7217      2.00000
     99       3.9308      2.00000
    100       4.0210      2.00000
    101       4.0286      2.00000
    102       4.0859      2.00000
    103       4.1053      2.00000
    104       4.1604      2.00000
    105       4.1792      2.00000
    106       4.2160      2.00000
    107       4.2191      2.00000
    108       4.3127      2.00000
    109       4.3320      2.00000
    110       4.3807      2.00000
    111       4.5166      2.00000
    112       4.5366      2.00000
    113       4.6104      2.00000
    114       4.6875      2.00000
    115       4.6914      2.00000
    116       4.7217      2.00000
    117       4.7409      2.00000
    118       4.7637      2.00000
    119       4.8270      2.00000
    120       4.8495      2.00000
    121       4.8896      2.00000
    122       4.9045      2.00000
    123       4.9271      2.00000
    124       4.9786      2.00000
    125       4.9963      2.00000
    126       5.0153      2.00000
    127       5.0646      2.00000
    128       5.0669      2.00000
    129       5.1050      2.00000
    130       5.1469      2.00000
    131       5.1690      2.00000
    132       5.2147      2.00000
    133       5.2259      2.00000
    134       5.2694      2.00000
    135       5.3742      2.00000
    136       5.4411      2.00000
    137       5.4476      2.00000
    138       5.4606      2.00000
    139       5.5255      2.00000
    140       5.5287      2.00000
    141       5.5725      2.00000
    142       5.6278      2.00000
    143       5.6444      2.00000
    144       5.6761      2.00000
    145       5.6967      2.00000
    146       5.7254      2.00000
    147       5.7301      2.00000
    148       5.7618      2.00000
    149       5.7950      2.00000
    150       5.8229      2.00000
    151       5.8423      2.00000
    152       5.8507      2.00000
    153       5.9179      2.00000
    154       5.9587      2.00000
    155       5.9855      2.00000
    156       5.9952      2.00000
    157       6.0236      2.00000
    158       6.0582      2.00000
    159       6.0884      2.00000
    160       6.1514      2.00000
    161       6.1989      2.00000
    162       6.2092      2.00000
    163       6.2517      2.00000
    164       6.2680      2.00000
    165       6.3300      2.00000
    166       6.3397      2.00000
    167       6.3473      2.00000
    168       6.3835      2.00000
    169       6.3885      2.00000
    170       6.4216      2.00000
    171       6.4397      2.00000
    172       6.4858      2.00000
    173       6.5128      2.00000
    174       6.5585      2.00000
    175       6.5651      2.00000
    176       6.5839      2.00000
    177       6.6275      2.00000
    178       6.6281      2.00000
    179       6.6667      2.00000
    180       6.6668      2.00000
    181       6.6929      2.00000
    182       6.7480      2.00000
    183       6.7519      2.00000
    184       6.8135      2.00000
    185       6.9085      2.00000
    186       6.9315      2.00000
    187       6.9569      2.00000
    188       7.0217      2.00000
    189       7.0451      2.00000
    190       7.1227      2.00000
    191       7.1705      2.00000
    192       7.1733      2.00000
    193       7.2222      2.00000
    194       7.3010      2.00000
    195       7.3257      2.00000
    196       7.3339      2.00000
    197       7.3554      2.00000
    198       7.3850      2.00000
    199       7.4186      2.00000
    200       7.4459      2.00000
    201       7.5327      2.00000
    202       7.5703      2.00000
    203       7.6417      2.00000
    204       7.6861      2.00000
    205       7.6963      2.00000
    206       7.7174      2.00000
    207       7.7745      2.00000
    208       7.7947      2.00000
    209       7.8272      2.00000
    210       7.8633      2.00000
    211       7.9272      2.00000
    212       7.9303      2.00000
    213       7.9530      2.00000
    214       8.0115      2.00000
    215       8.0277      2.00000
    216       8.0689      2.00000
    217       8.1390      2.00000
    218       8.1419      2.00000
    219       8.1507      2.00000
    220       8.1968      2.00000
    221       8.2122      2.00000
    222       8.2502      2.00000
    223       8.2685      2.00000
    224       8.2793      2.00000
    225       8.2935      2.00000
    226       8.3409      2.00000
    227       8.3615      2.00000
    228       8.3954      2.00000
    229       8.4187      2.00000
    230       8.4669      2.00000
    231       8.4752      2.00000
    232       8.5041      2.00000
    233       8.5324      2.00000
    234       8.6171      2.00000
    235       8.6387      2.00000
    236       8.6504      2.00000
    237       8.6782      2.00000
    238       8.7066      2.00000
    239       8.7171      2.00000
    240       8.7609      2.00000
    241       8.7864      2.00000
    242       8.8248      2.00000
    243       8.8849      2.00000
    244       8.9078      2.00000
    245       8.9222      2.00001
    246       8.9888      2.00043
    247       9.0574      2.00914
    248       9.1185      2.05067
    249       9.1370      2.06590
    250       9.1414      2.06838
    251       9.1537      2.07070
    252       9.1684      2.05938
    253       9.1755      2.04620
    254       9.2084      1.88416
    255       9.2521      1.35515
    256       9.2865      0.78368
    257       9.3650     -0.02757
    258       9.3957     -0.07091
    259       9.4070     -0.06778
    260       9.4346     -0.04518
    261       9.4582     -0.02548
    262       9.4965     -0.00712
    263       9.5948     -0.00005
    264       9.9395     -0.00000
    265       9.9486     -0.00000
    266      10.0406     -0.00000
    267      10.4207     -0.00000
    268      10.7544     -0.00000
    269      10.9145     -0.00000
    270      10.9297     -0.00000
    271      11.0902     -0.00000
    272      11.1997     -0.00000
    273      11.4189     -0.00000
    274      11.6484     -0.00000
    275      12.1441      0.00000
    276      12.2456      0.00000
    277      12.2748      0.00000
    278      12.4718      0.00000
    279      13.1253      0.00000
    280      13.2498      0.00000
    281      13.2868      0.00000
    282      13.3401      0.00000
    283      15.8508      0.00000
    284      16.0293      0.00000
    285      16.1667      0.00000
    286      16.2288      0.00000
    287      16.3329      0.00000
    288      16.5376      0.00000
    289      16.6119      0.00000
    290      16.8027      0.00000
    291      17.0277      0.00000
    292      17.1378      0.00000
    293      17.2969      0.00000
    294      17.3678      0.00000
    295      18.0918      0.00000
    296      18.3809      0.00000
    297      18.5045      0.00000
    298      18.6863      0.00000
    299      18.8334      0.00000
    300      19.0193      0.00000
    301      19.1121      0.00000
    302      19.1208      0.00000
    303      19.4544      0.00000
    304      19.6194      0.00000
    305      19.7408      0.00000
    306      19.8276      0.00000
    307      19.8562      0.00000

 k-point   2 :       0.5000    0.1250    0.7500
  band No.  band energies     occupation 
      1     -41.2978      2.00000
      2     -41.2915      2.00000
      3     -40.9685      2.00000
      4     -40.9541      2.00000
      5     -40.9040      2.00000
      6     -40.8913      2.00000
      7     -40.8132      2.00000
      8     -40.8115      2.00000
      9     -40.7953      2.00000
     10     -40.7869      2.00000
     11     -40.7820      2.00000
     12     -40.7694      2.00000
     13     -40.7557      2.00000
     14     -40.7521      2.00000
     15     -40.7476      2.00000
     16     -40.7286      2.00000
     17     -40.7077      2.00000
     18     -40.7038      2.00000
     19     -40.6888      2.00000
     20     -40.6885      2.00000
     21     -40.6791      2.00000
     22     -40.6757      2.00000
     23     -40.6674      2.00000
     24     -40.6612      2.00000
     25     -40.6584      2.00000
     26     -40.6456      2.00000
     27     -40.6330      2.00000
     28     -40.6289      2.00000
     29     -40.6149      2.00000
     30     -40.6109      2.00000
     31     -40.6062      2.00000
     32     -40.5998      2.00000
     33     -40.5871      2.00000
     34     -40.5833      2.00000
     35     -40.5789      2.00000
     36     -40.5686      2.00000
     37     -40.5613      2.00000
     38     -40.5571      2.00000
     39     -40.5565      2.00000
     40     -40.5442      2.00000
     41     -40.5426      2.00000
     42     -40.5323      2.00000
     43     -40.5252      2.00000
     44     -40.5240      2.00000
     45     -40.5189      2.00000
     46     -40.5180      2.00000
     47     -40.5098      2.00000
     48     -40.5092      2.00000
     49     -40.5039      2.00000
     50     -40.5019      2.00000
     51     -40.4929      2.00000
     52     -40.4878      2.00000
     53     -40.4875      2.00000
     54     -40.4762      2.00000
     55     -40.4735      2.00000
     56     -40.4732      2.00000
     57     -40.4714      2.00000
     58     -40.4634      2.00000
     59     -40.4547      2.00000
     60     -40.4538      2.00000
     61     -40.4499      2.00000
     62     -40.4477      2.00000
     63     -40.4449      2.00000
     64     -40.4429      2.00000
     65     -40.4427      2.00000
     66     -40.4347      2.00000
     67     -40.4325      2.00000
     68     -40.4315      2.00000
     69     -40.4279      2.00000
     70     -40.4234      2.00000
     71     -40.4189      2.00000
     72     -40.4179      2.00000
     73     -40.4172      2.00000
     74     -40.4101      2.00000
     75     -40.4011      2.00000
     76     -40.3981      2.00000
     77     -40.3972      2.00000
     78     -40.3945      2.00000
     79     -40.3897      2.00000
     80     -40.3825      2.00000
     81     -40.3761      2.00000
     82     -40.3752      2.00000
     83     -40.3644      2.00000
     84     -40.3637      2.00000
     85     -40.3536      2.00000
     86     -40.3531      2.00000
     87     -40.3529      2.00000
     88     -40.3493      2.00000
     89     -40.3433      2.00000
     90     -40.3425      2.00000
     91     -40.3351      2.00000
     92     -40.3345      2.00000
     93     -40.3296      2.00000
     94     -40.3241      2.00000
     95     -40.3079      2.00000
     96     -40.3072      2.00000
     97       3.1125      2.00000
     98       3.1703      2.00000
     99       4.0676      2.00000
    100       4.0862      2.00000
    101       4.1459      2.00000
    102       4.1685      2.00000
    103       4.2101      2.00000
    104       4.2134      2.00000
    105       4.2351      2.00000
    106       4.3385      2.00000
    107       4.3605      2.00000
    108       4.3882      2.00000
    109       4.4095      2.00000
    110       4.4522      2.00000
    111       4.4785      2.00000
    112       4.5220      2.00000
    113       4.5517      2.00000
    114       4.5719      2.00000
    115       4.5968      2.00000
    116       4.6038      2.00000
    117       4.6632      2.00000
    118       4.6940      2.00000
    119       4.7268      2.00000
    120       4.7900      2.00000
    121       4.7944      2.00000
    122       4.8087      2.00000
    123       4.8290      2.00000
    124       4.8492      2.00000
    125       4.8605      2.00000
    126       4.8944      2.00000
    127       4.9184      2.00000
    128       4.9273      2.00000
    129       4.9633      2.00000
    130       5.0134      2.00000
    131       5.0852      2.00000
    132       5.1785      2.00000
    133       5.1799      2.00000
    134       5.2155      2.00000
    135       5.2561      2.00000
    136       5.3095      2.00000
    137       5.3162      2.00000
    138       5.3437      2.00000
    139       5.4228      2.00000
    140       5.5002      2.00000
    141       5.5316      2.00000
    142       5.5718      2.00000
    143       5.5839      2.00000
    144       5.6310      2.00000
    145       5.6516      2.00000
    146       5.6595      2.00000
    147       5.6804      2.00000
    148       5.7189      2.00000
    149       5.8140      2.00000
    150       5.8327      2.00000
    151       5.8735      2.00000
    152       5.9196      2.00000
    153       5.9264      2.00000
    154       5.9887      2.00000
    155       6.0276      2.00000
    156       6.0295      2.00000
    157       6.0391      2.00000
    158       6.0568      2.00000
    159       6.0853      2.00000
    160       6.2228      2.00000
    161       6.2429      2.00000
    162       6.2795      2.00000
    163       6.2959      2.00000
    164       6.2986      2.00000
    165       6.3193      2.00000
    166       6.4127      2.00000
    167       6.4443      2.00000
    168       6.4937      2.00000
    169       6.4949      2.00000
    170       6.5517      2.00000
    171       6.5576      2.00000
    172       6.6061      2.00000
    173       6.6295      2.00000
    174       6.6430      2.00000
    175       6.6821      2.00000
    176       6.7081      2.00000
    177       6.7559      2.00000
    178       6.7817      2.00000
    179       6.8485      2.00000
    180       6.8617      2.00000
    181       6.8819      2.00000
    182       6.9269      2.00000
    183       6.9597      2.00000
    184       6.9756      2.00000
    185       6.9802      2.00000
    186       7.0211      2.00000
    187       7.0370      2.00000
    188       7.0379      2.00000
    189       7.0676      2.00000
    190       7.1364      2.00000
    191       7.1783      2.00000
    192       7.1861      2.00000
    193       7.2037      2.00000
    194       7.2296      2.00000
    195       7.2891      2.00000
    196       7.2920      2.00000
    197       7.3265      2.00000
    198       7.3676      2.00000
    199       7.3854      2.00000
    200       7.4565      2.00000
    201       7.4885      2.00000
    202       7.5026      2.00000
    203       7.5283      2.00000
    204       7.5716      2.00000
    205       7.5865      2.00000
    206       7.6116      2.00000
    207       7.6628      2.00000
    208       7.6658      2.00000
    209       7.6869      2.00000
    210       7.7890      2.00000
    211       7.7897      2.00000
    212       7.8380      2.00000
    213       7.8512      2.00000
    214       7.9188      2.00000
    215       7.9734      2.00000
    216       7.9968      2.00000
    217       8.0401      2.00000
    218       8.0564      2.00000
[...]
         0         1         2         3         4         5         6         7         8         9
x   266.6474    0.0000   -1.1341   -0.9082    0.0021    8.3670    1.1991   -0.9020   40.8462    0.0814
x    -0.2674   -0.2160   -0.0004   -0.2160   -0.1044    0.0584   -5.9577   -0.0385    0.2235    0.1982
x    -0.0029   -0.8593   -0.0042   -0.0117   -0.5145   -0.0109    0.0154    0.0150   -0.0004   -0.0456
x     0.0023   -0.0025   -0.0029   -0.0003    0.0002    0.0002   -0.0000   -0.0003    0.0000   -0.0000
x     0.0000   -0.0000    0.0000    0.0000    0.0000    0.0000    0.0000    0.0000    0.0000    0.0000
y   266.6474    0.0000    0.8277    1.0627   -0.0013   -8.3757   -1.1589    1.4141   40.8844    0.0819
y     0.1770    0.2405   -0.0014    0.2066    0.1653   -0.1925   -5.9090   -0.0384   -0.0344   -0.0804
y     0.0023    0.8865    0.0475   -0.0503   -0.5014   -0.0109    0.0074    0.0039    0.0003    0.0472
y    -0.0003    0.0007   -0.0021   -0.0003    0.0002    0.0002    0.0000    0.0003   -0.0000    0.0000
y     0.0000   -0.0000    0.0000    0.0000   -0.0000    0.0000   -0.0000    0.0000    0.0000    0.0000
z   266.6474    0.0000   -0.0000   -0.0000    0.0067   -0.0000   -0.0000    0.0000   44.1886    0.0000
z    -0.0000   -0.0000    0.0195    0.0000    0.0000   -0.0000   -8.3056    0.0000    0.0000    0.0000
z     0.0073    0.0000   -0.0000    0.0000   -1.1738    0.0000    0.0000   -0.0000    0.0006    0.0000
z    -0.0000    0.0000   -0.0203    0.0000   -0.0000   -0.0000    0.0000    0.0000   -0.0000    0.0000
z    -0.0001    0.0000    0.0000    0.0000    0.0000    0.0000   -0.0000    0.0000    0.0000    0.0000
 total charge-density along one line
x   512.0000    0.0000   -2.2597   -1.8124    0.0052   19.1486    3.5023   -2.6290  184.1423    0.3621
x    -2.8843   -2.4089    0.0119   11.3171    0.8463   -0.5471   16.4999    0.1005   -0.1885   -0.1631
x    -0.0000    0.3820    0.0264   -0.0269   -0.7266   -0.0161    0.0623    0.0591   -0.0012   -0.0688
x     0.0020    0.0016    0.0400    0.0051    0.0043    0.0026    0.0002    0.0191    0.0027   -0.0029
x     0.0120   -0.0025   -0.0035   -0.0024   -0.0001   -0.0034   -0.0024    0.0023   -0.0111    0.0015
x     0.0021    0.0016    0.0000    0.0003    0.0016   -0.0015    0.0061   -0.0010   -0.0010   -0.0008
x     0.0000    0.0000   -0.0009    0.0008   -0.0026    0.0006    0.0004    0.0003   -0.0000    0.0001
x     0.0004   -0.0003    0.0008   -0.0004   -0.0002   -0.0001    0.0000   -0.0003    0.0000   -0.0001
x     0.0000    0.0002    0.0001    0.0001   -0.0000    0.0003   -0.0002    0.0002   -0.0003   -0.0001
x    -0.0001   -0.0001    0.0000   -0.0004    0.0002   -0.0002    0.0004    0.0000
y   512.0000    0.0000    1.6543    2.1246   -0.0046  -19.1755   -3.3721    4.1095  184.1980    0.3625
y     1.5753    2.2174   -0.0157  -11.2989   -1.1442    1.3322   16.6025    0.1006    0.0675    0.1352
y    -0.0022   -0.2978   -0.0307    0.0376   -0.6700   -0.0162    0.0108    0.0014    0.0006    0.0822
y    -0.0162    0.0181    0.0471    0.0051   -0.0123   -0.0118   -0.0002   -0.0190    0.0003    0.0000
y     0.0112   -0.0025    0.0058    0.0061    0.0001    0.0033    0.0009   -0.0013   -0.0110    0.0015
y    -0.0026   -0.0029   -0.0000   -0.0002   -0.0009    0.0013    0.0061   -0.0010    0.0010    0.0012
y    -0.0000   -0.0001    0.0007   -0.0009   -0.0026    0.0006   -0.0003   -0.0004    0.0000   -0.0001
y    -0.0003    0.0005    0.0008   -0.0004    0.0001    0.0001   -0.0000    0.0003    0.0001   -0.0002
y     0.0000    0.0002   -0.0000   -0.0000    0.0000   -0.0003    0.0001   -0.0000   -0.0003   -0.0001
y     0.0001    0.0001   -0.0000    0.0004   -0.0001    0.0001    0.0004    0.0000
z   512.0000    0.0000   -0.0000   -0.0000    0.0154   -0.0000   -0.0000    0.0000  198.1813   -0.0000
z    -0.0000   -0.0000    0.0355    0.0000   -0.0000    0.0000   22.0648    0.0000    0.0000   -0.0000
z     0.0244    0.0000   -0.0000    0.0000   -1.7261    0.0000    0.0000   -0.0000    0.0067    0.0000
z    -0.0000    0.0000    0.2920    0.0000    0.0000   -0.0000   -0.0001    0.0000   -0.0000   -0.0000
z    -0.0872   -0.0000   -0.0000    0.0000    0.0001    0.0000    0.0000    0.0000    0.0344    0.0000
z     0.0000   -0.0000    0.0000   -0.0000   -0.0000   -0.0000   -0.0155    0.0000    0.0000    0.0000
z     0.0000    0.0000    0.0000    0.0000    0.0075   -0.0000   -0.0000   -0.0000   -0.0000   -0.0000
z    -0.0000   -0.0000   -0.0038   -0.0000    0.0000    0.0000   -0.0001    0.0000    0.0000    0.0000
z     0.0020    0.0000   -0.0000   -0.0000   -0.0000   -0.0000   -0.0000   -0.0000   -0.0012    0.0000
z     0.0000    0.0000    0.0001   -0.0000   -0.0000    0.0000    0.0010    0.0000
 
 pseudopotential strength for first ion, spin component:           1
-37.216   0.000  -0.020   8.235  -0.000   0.010  -0.000  -0.000
  0.000 -37.236   0.000  -0.000   8.245  -0.000   0.000  -0.001
 -0.020   0.000 -37.244   0.010  -0.000   8.250   0.001   0.000
  8.235  -0.000   0.010   7.876   0.000  -0.003  -0.000   0.000
 -0.000   8.245  -0.000   0.000   7.874   0.000  -0.000   0.001
  0.010  -0.000   8.250  -0.003   0.000   7.873  -0.000  -0.000
 -0.000   0.000   0.001  -0.000  -0.000  -0.000  -2.281   0.000
 -0.000  -0.001   0.000   0.000   0.001  -0.000   0.000  -2.277
 -0.002  -0.000   0.003   0.000   0.000  -0.000   0.012  -0.000
  0.000   0.004  -0.000  -0.000  -0.002   0.000  -0.000  -0.013
 -0.001   0.000   0.000   0.000  -0.000  -0.001   0.005  -0.000
 -0.000   0.000   0.001  -0.000  -0.000  -0.000  -1.929   0.000
 -0.000  -0.002   0.000   0.000   0.001  -0.000   0.000  -1.925
 -0.003  -0.000   0.003   0.001   0.000  -0.000   0.013  -0.000
  0.000   0.005  -0.000  -0.000  -0.002   0.000  -0.000  -0.014
 -0.002   0.000   0.000   0.000  -0.000  -0.001   0.005  -0.000
  0.001   0.000  -0.002   0.001  -0.000  -0.001   0.006  -0.000
  0.002   0.000  -0.004   0.002  -0.000  -0.002   0.012  -0.000
 total augmentation occupancy for first ion, spin component:           1
  1.997   0.000  -0.000  -0.012   0.000  -0.000  -0.001  -0.000  -0.000   0.000  -0.002   0.001   0.000  -0.000   0.000   0.002
  0.000   1.997  -0.000   0.000  -0.012   0.000   0.000   0.002  -0.000  -0.003   0.000  -0.000  -0.003   0.000   0.003   0.000
 -0.000  -0.000   1.997  -0.000   0.000  -0.013   0.001   0.000   0.000  -0.000  -0.002  -0.001   0.000   0.000   0.000   0.002
 -0.012   0.000  -0.000   0.099  -0.000   0.002  -0.013   0.000   0.010  -0.000  -0.013   0.012   0.000  -0.006  -0.000   0.013
  0.000  -0.012   0.000  -0.000   0.103  -0.000  -0.000   0.041   0.000  -0.047  -0.000   0.000  -0.034   0.000   0.035  -0.000
 -0.000   0.000  -0.013   0.002  -0.000   0.106   0.012   0.000  -0.012   0.000  -0.014  -0.011  -0.000   0.006   0.000   0.013
 -0.001   0.000   0.001  -0.013  -0.000   0.012   2.705   0.000  -0.002  -0.000  -0.036  -0.696  -0.000   0.003  -0.000   0.033
 -0.000   0.002   0.000   0.000   0.041   0.000   0.000   2.703  -0.000  -0.021  -0.000  -0.000  -0.697  -0.000   0.010  -0.000
 -0.000  -0.000   0.000   0.010   0.000  -0.012  -0.002  -0.000   2.514   0.000  -0.025   0.002  -0.000  -0.534   0.000   0.020
  0.000  -0.003  -0.000  -0.000  -0.047   0.000  -0.000  -0.021   0.000   2.741   0.000  -0.000   0.010   0.000  -0.734   0.000
 -0.002   0.000  -0.002  -0.013  -0.000  -0.014  -0.036  -0.000  -0.025   0.000   2.496   0.033  -0.000   0.020   0.000  -0.524
  0.001  -0.000  -0.001   0.012   0.000  -0.011  -0.696  -0.000   0.002  -0.000   0.033   0.449  -0.000   0.004  -0.000  -0.012
  0.000  -0.003   0.000   0.000  -0.034  -0.000  -0.000  -0.697  -0.000   0.010  -0.000  -0.000   0.453  -0.000  -0.019  -0.000
 -0.000   0.000   0.000  -0.006   0.000   0.006   0.003  -0.000  -0.534   0.000   0.020   0.004  -0.000   0.425   0.000  -0.014
  0.000   0.003   0.000  -0.000   0.035   0.000  -0.000   0.010   0.000  -0.734   0.000  -0.000  -0.019   0.000   0.461   0.000
  0.002   0.000   0.002   0.013  -0.000   0.013   0.033  -0.000   0.020   0.000  -0.524  -0.012  -0.000  -0.014   0.000   0.412
 -0.001   0.000   0.002   0.019   0.000  -0.021  -0.014  -0.000   0.007   0.000   0.023  -0.005   0.000  -0.009   0.001  -0.034
  0.000  -0.000  -0.001  -0.002  -0.000   0.002   0.009  -0.000   0.001  -0.000   0.003  -0.001   0.000   0.001   0.000   0.003


------------------------ aborting loop because EDIFF is reached ----------------------------------------


    CHARGE:  cpu time   42.34: real time   42.34
    FORLOC:  cpu time    0.13: real time    0.13
    FORNL :  cpu time  208.49: real time  208.51
    STRESS:  cpu time  619.82: real time  619.87
    FORCOR:  cpu time    0.94: real time    0.94
    FORHAR:  cpu time    0.30: real time    0.30
    MIXING:  cpu time    0.02: real time    0.02

  FORCE on cell =-STRESS in cart. coord.  units (eV):
  Direction    XX          YY          ZZ          XY          YZ          ZX
  --------------------------------------------------------------------------------------
  Alpha Z  4309.77481  4309.77481  4309.77481
  Ewald  -23039.89663-23011.57489-22402.54821   -63.93564     0.00000    -0.00000
  Hartree  5757.81036  5770.83998  6183.25655  -120.45698     0.25465     0.35945
  E(xc)   -2905.66312 -2905.63376 -2905.30838     0.10585    -0.00219     0.00104
  Local    5812.26461  5774.08822  4752.77010   215.29613    -0.75624    -1.00706
  n-local  -886.89312  -886.75804  -889.24223     9.44405    -0.13570     0.00696
  augment  3879.28189  3877.71095  3880.29788   -16.99588     0.36657     0.34758
  Kinetic  7098.10306  7096.06803  7095.37564   -16.48696     0.50141     0.43489
  Fock        0.00000     0.00000     0.00000     0.00000     0.00000     0.00000
  -------------------------------------------------------------------------------------
  Total      24.78186    24.51530    24.37617     6.97057     0.22849     0.14286
  in kB      81.95432    81.07280    80.61267    23.05185     0.75562     0.47244
  external pressure =       81.21 kB  Pullay stress =        0.00 kB


 VOLUME and BASIS-vectors are now :
 -----------------------------------------------------------------------------
  energy-cutoff  :      300.00
  volume of cell :      484.48
      direct lattice vectors                 reciprocal lattice vectors
     7.854000000 -0.000000000 -0.000000000     0.127323657  0.000000000 -0.000000000
    -0.000000000  7.854000000  0.000000000     0.000000000  0.127323657 -0.000000000
     0.000000000  0.000000000  7.854000000     0.000000000 -0.000000000  0.127323657

  length of vectors
     7.854000000  7.854000000  7.854000000     0.127323657  0.127323657  0.127323657


 FORCES acting on ions
    electron-ion (+dipol)            ewald-force                    non-local-force                 convergence-correction
 -----------------------------------------------------------------------------------------------
   -.662E+02 0.655E+02 0.670E-02   0.666E+02 -.658E+02 -.313E-13   0.279E+00 -.273E+00 -.526E-02   -.178E-01 -.104E-02 0.766E-03
   -.488E+02 -.168E+03 -.265E-02   0.500E+02 0.169E+03 0.114E-12   0.122E+00 0.879E+00 0.160E-02   -.105E-01 -.646E-02 0.144E-03
   0.689E+02 0.163E+03 -.246E-01   -.684E+02 -.163E+03 -.114E-12   -.117E+01 -.106E+01 0.786E-02   0.102E-01 0.238E-02 -.103E-02
   -.175E+03 -.200E+03 0.276E-01   0.175E+03 0.202E+03 -.114E-12   0.132E+01 0.133E+01 -.106E-01   0.947E-02 0.835E-02 -.104E-03
   0.132E+03 -.557E+01 -.693E-02   -.133E+03 0.619E+01 0.000E+00   -.413E+00 -.810E+00 -.233E-02   -.692E-02 -.201E-01 0.591E-04
   0.318E+02 -.343E+02 0.448E-02   -.317E+02 0.345E+02 0.354E-13   0.538E-01 -.115E+00 0.397E-02   -.116E-01 0.135E-01 -.629E-03
   -.355E+02 -.171E+02 0.168E-01   0.357E+02 0.164E+02 -.114E-12   0.674E+00 0.878E+00 -.546E-02   0.104E-02 0.209E-01 -.113E-03
   0.263E+03 0.154E+03 -.183E-01   -.265E+03 -.156E+03 -.195E-12   -.996E+00 -.571E+00 0.109E-01   0.197E-02 -.174E-01 0.598E-03
   -.257E+03 -.162E+03 0.189E-01   0.259E+03 0.164E+03 -.144E-13   0.985E+00 0.608E+00 -.107E-01   0.137E-01 -.185E-01 -.537E-03
   0.385E+02 0.210E+02 -.171E-01   -.386E+02 -.202E+02 -.711E-14   -.729E+00 -.928E+00 0.587E-02   0.601E-02 -.255E-03 -.121E-03
   -.314E+02 0.303E+02 -.370E-02   0.314E+02 -.304E+02 0.142E-12   0.491E-01 0.198E+00 -.436E-02   -.134E-01 0.202E-01 0.806E-03
   -.118E+03 0.122E+02 0.573E-02   0.119E+03 -.128E+02 0.142E-13   0.367E+00 0.736E+00 0.238E-02   -.804E-02 -.136E-02 0.470E-04
   0.155E+03 0.181E+03 -.281E-01   -.156E+03 -.182E+03 -.568E-13   -.136E+01 -.134E+01 0.109E-01   0.718E-02 -.382E-02 -.561E-04
   -.798E+02 -.159E+03 0.250E-01   0.794E+02 0.159E+03 0.246E-12   0.117E+01 0.111E+01 -.800E-02   0.195E-01 -.140E-01 0.897E-03
   0.629E+02 0.191E+03 0.253E-02   -.643E+02 -.192E+03 -.142E-13   -.172E+00 -.905E+00 -.192E-02   0.282E-02 0.427E-02 0.877E-04
   0.591E+02 -.718E+02 -.588E-02   -.595E+02 0.721E+02 0.171E-12   -.184E+00 0.267E+00 0.496E-02   -.185E-02 0.140E-01 -.951E-03
   0.318E+02 -.343E+02 0.324E-02   -.317E+02 0.345E+02 -.221E-12   0.538E-01 -.115E+00 0.395E-02   -.116E-01 0.135E-01 0.623E-03
   -.355E+02 -.171E+02 0.166E-01   0.357E+02 0.164E+02 0.995E-13   0.674E+00 0.878E+00 -.547E-02   0.841E-03 0.209E-01 0.139E-03
   0.263E+03 0.154E+03 -.171E-01   -.265E+03 -.156E+03 0.107E-12   -.996E+00 -.571E+00 0.109E-01   0.195E-02 -.174E-01 -.583E-03
   0.132E+03 -.557E+01 -.681E-02   -.133E+03 0.619E+01 0.568E-13   -.413E+00 -.810E+00 -.232E-02   -.682E-02 -.202E-01 -.624E-04
   0.385E+02 0.210E+02 -.173E-01   -.386E+02 -.202E+02 0.568E-13   -.729E+00 -.928E+00 0.586E-02   0.627E-02 -.679E-04 0.879E-04
   -.314E+02 0.303E+02 -.215E-02   0.314E+02 -.304E+02 -.142E-12   0.491E-01 0.198E+00 -.435E-02   -.134E-01 0.202E-01 -.755E-03
   -.118E+03 0.122E+02 0.582E-02   0.119E+03 -.128E+02 -.135E-12   0.367E+00 0.736E+00 0.238E-02   -.827E-02 -.114E-02 -.434E-04
   -.257E+03 -.162E+03 0.178E-01   0.259E+03 0.164E+03 0.214E-14   0.985E+00 0.608E+00 -.107E-01   0.136E-01 -.186E-01 0.530E-03
   -.798E+02 -.159E+03 0.268E-01   0.794E+02 0.159E+03 -.157E-12   0.117E+01 0.111E+01 -.799E-02   0.195E-01 -.140E-01 -.894E-03
   0.629E+02 0.191E+03 0.277E-02   -.643E+02 -.192E+03 0.142E-13   -.172E+00 -.905E+00 -.191E-02   0.255E-02 0.415E-02 -.152E-03
   0.591E+02 -.718E+02 -.778E-02   -.595E+02 0.721E+02 -.292E-12   -.184E+00 0.267E+00 0.495E-02   -.187E-02 0.140E-01 0.964E-03
   0.155E+03 0.181E+03 -.283E-01   -.156E+03 -.182E+03 0.568E-13   -.136E+01 -.134E+01 0.109E-01   0.734E-02 -.383E-02 0.764E-04
   -.488E+02 -.168E+03 -.242E-02   0.500E+02 0.169E+03 0.000E+00   0.122E+00 0.879E+00 0.159E-02   -.102E-01 -.661E-02 -.774E-04
   0.689E+02 0.163E+03 -.266E-01   -.684E+02 -.163E+03 0.225E-12   -.117E+01 -.106E+01 0.785E-02   0.102E-01 0.243E-02 0.100E-02
   -.175E+03 -.200E+03 0.274E-01   0.175E+03 0.202E+03 -.114E-12   0.132E+01 0.133E+01 -.106E-01   0.916E-02 0.809E-02 0.799E-04
   -.662E+02 0.655E+02 0.822E-02   0.666E+02 -.658E+02 -.566E-13   0.279E+00 -.273E+00 -.524E-02   -.178E-01 -.990E-03 -.768E-03
 -----------------------------------------------------------------------------------------------
   0.761E-02 -.118E-01 0.509E-03   -.284E-13 0.256E-12 -.436E-12   -.783E-02 0.136E-01 -.559E-03   0.328E-02 0.124E-02 0.302E-04
 
 
 POSITION                                       TOTAL-FORCE (eV/Angst)
 -----------------------------------------------------------------------------------
      7.84659      7.84659      0.00000         0.630665     -0.529764      0.002209
      7.74841      1.85791      1.96350         1.266240      1.915481     -0.000901
      0.16547      4.09247      3.92700        -0.694848     -1.119658     -0.017757
      7.71187      5.74837      5.89050         2.049719      2.629300      0.016823
      2.08018      0.11668      1.96350        -1.297055     -0.211827     -0.009195
      1.95609      1.95609      3.92700         0.093989      0.091858      0.007817
      1.85791      3.82141      5.89050         0.794446      0.154407      0.011255
      2.12897      6.05597      0.00000        -3.565561     -2.665649     -0.006769
      3.75974      7.68674      3.92700         3.595508      2.688953      0.007596
      4.04368      2.08018      5.89050        -0.838383     -0.205102     -0.011389
      3.91959      3.91959      0.00000        -0.056840      0.050344     -0.007255
      3.82141      5.78491      1.96350         1.223462      0.120185      0.008154
      6.02421      0.13371      5.89050        -1.870900     -2.407141     -0.017319
      5.72324      1.79624     -0.00000         0.767071      1.079205      0.017904
      6.00718      4.04368      1.96350        -1.529887     -2.202775      0.000698
      5.88309      5.88309      3.92700        -0.567640      0.612222     -0.001873
      1.95609      1.95609      0.00000         0.093993      0.091862      0.007813
      1.85791      3.82141      1.96350         0.794454      0.154404      0.011250
      2.12897      6.05597      3.92700        -3.565568     -2.665649     -0.006762
      2.08018      0.11668      5.89050        -1.297050     -0.211816     -0.009195
      4.04368      2.08018      1.96350        -0.838378     -0.205100     -0.011390
      3.91959      3.91959      3.92700        -0.056839      0.050343     -0.007256
      3.82141      5.78491      5.89050         1.223462      0.120189      0.008156
      3.75974      7.68674      0.00000         3.595509      2.688951      0.007594
      5.72324      1.79624      3.92700         0.767076      1.079195      0.017893
      6.00718      4.04368      5.89050        -1.529891     -2.202801      0.000702
      5.88309      5.88309      0.00000        -0.567659      0.612216     -0.001864
      6.02421      0.13371      1.96350        -1.870869     -2.407143     -0.017319
      7.74841      1.85791      5.89050         1.266243      1.915476     -0.000912
      0.16547      4.09247      0.00000        -0.694839     -1.119655     -0.017750
      7.71187      5.74837      1.96350         2.049704      2.629274      0.016835
      7.84659      7.84659      3.92700         0.630663     -0.529784      0.002209
 -----------------------------------------------------------------------------------
    total drift:                                0.003066      0.003027     -0.000020


--------------------------------------------------------------------------------------------------------



  FREE ENERGIE OF THE ION-ELECTRON SYSTEM (eV)
  ---------------------------------------------------
  free  energy   TOTEN  =      -161.92221500 eV

  energy  without entropy=     -161.92289396  energy(sigma->0) =     -161.92244132
 


--------------------------------------------------------------------------------------------------------


    POTLOK:  cpu time    0.97: real time    0.98


--------------------------------------------------------------------------------------------------------


     LOOP+:  cpu time15173.48: real time15175.53
    4ORBIT:  cpu time    0.00: real time    0.00

 total amount of memory used by VASP on root node   850103. kBytes
========================================================================

   base      :      30000. kBytes
   nonlr-proj:      27745. kBytes
   grid      :      47517. kBytes
   one-center:        497. kBytes
   wavefun   :     744344. kBytes
 
  
  
 General timing and accounting informations for this job:
 ========================================================
  
                  Total CPU time used (sec):    15274.376
                            User time (sec):    15272.103
                          System time (sec):        2.273
                         Elapsed time (sec):    15277.042
  
                   Maximum memory used (kb):     2313356.
                   Average memory used (kb):           0.
  
                          Minor page faults:       932937
                          Major page faults:            7
                 Voluntary context switches:          327
