32
dft_energy=-165.69868045 dft_virial="7.52701516      -0.94568635       0.05674584      -0.94568635       7.70219669       0.70537985       0.05674584       0.70537985      10.89305392" config_type=ph cutoff=-1.00000000 nneightol=1.20000000 pbc="T T T" Lattice="7.85400000      -0.00000000      -0.00000000      -0.00000000       7.85400000       0.00000000       0.00000000       0.00000000       7.85400000" Properties=species:S:1:pos:R:3:Z:I:1:dft_force:R:3
Pd              0.10654000      0.10654000      0.00000000      46     -0.43228300     -0.54454300      0.27885600
Pd              0.01961000      1.98311000      1.96350000      46      0.27681600      0.16975800     -0.11752100
Pd              7.75219000      3.82519000      3.92700000      46      0.48823800      0.43600800      0.30535700
Pd              7.80985000      5.84635000      5.89050000      46     -0.07761600     -0.07301700     -0.13257600
Pd              2.02963000      0.06613000      1.96350000      46     -0.28753100     -0.40032500     -0.02367800
Pd              1.88828000      1.88828000      3.92700000      46      0.17608800      0.18916200      0.09203700
Pd              1.87923000      3.84273000      5.89050000      46      0.33507800      0.35298300     -0.22948600
Pd              2.06100000      5.98800000      0.00000000      46     -0.50733600     -0.46680500      0.36342900
Pd              3.89560000      7.82260000      3.92700000      46     -0.05294400     -0.12884200     -0.10082800
Pd              3.82193000      1.85843000      5.89050000      46      0.45639300      0.45437100     -0.26059400
Pd              4.03354000      4.03354000      0.00000000      46     -0.48809700     -0.49391800      0.23382200
Pd              3.94661000      5.91011000      1.96350000      46      0.06992400      0.19164400      0.08693900
Pd              5.78869000      7.75219000      5.89050000      46      0.52712200      0.52350000     -0.24810100
Pd              5.98167000      2.05467000     -0.00000000      46     -0.43928600     -0.38058800      0.09686100
Pd              5.95663000      3.99313000      1.96350000      46     -0.55471900     -0.46283300     -0.21179900
Pd              5.81528000      5.81528000      3.92700000      46      0.12662400      0.25303900      0.18384600
Pd              2.07004000      2.07004000      0.00000000      46     -0.50257700     -0.48599000      0.24325800
Pd              1.98311000      3.94661000      1.96350000      46     -0.03432500     -0.05651400     -0.02045600
Pd              1.86169000      5.78869000      3.92700000      46      0.35122800      0.38503500     -0.09120800
Pd              1.85843000      7.74893000      5.89050000      46      0.65279500      0.57536100     -0.36055100
Pd              3.99313000      2.02963000      1.96350000      46     -0.12443200     -0.14899000     -0.10086600
Pd              3.85178000      3.85178000      3.92700000      46      0.14821100      0.20888800      0.09696600
Pd              3.84273000      5.80623000      5.89050000      46      0.30643600      0.37323200     -0.32474900
Pd              4.01817000      0.09117000     -0.00000000      46     -0.35481900     -0.44405500      0.34358300
Pd              5.85910000      1.93210000      3.92700000      46     -0.19438700     -0.12626300      0.15222200
Pd              5.78543000      3.82193000      5.89050000      46      0.53992500      0.59740300     -0.16780800
Pd              5.99704000      5.99704000      0.00000000      46     -0.53367500     -0.42780000      0.11097900
Pd              5.98800000      0.09750000      1.96350000      46     -0.64644200     -0.62099800     -0.15951400
Pd              7.76973000      1.87923000      5.89050000      46      0.36760000      0.33034100     -0.11966800
Pd              0.09750000      4.02450000      0.00000000      46     -0.47129000     -0.51753700     -0.04236700
Pd              7.82260000      5.85910000      1.96350000      46      0.61375500      0.62754800      0.10171700
Pd              7.77878000      7.77878000      3.92700000      46      0.26552600      0.11074500      0.02189900
