32
dft_energy=-161.92244132 dft_virial="24.78187442       6.97056667       0.14285945       6.97056667      24.51531473       0.22848924       0.14285945       0.22848924      24.37617766" config_type=ph cutoff=-1.00000000 nneightol=1.20000000 pbc="T T T" Lattice="7.85400000      -0.00000000      -0.00000000      -0.00000000       7.85400000       0.00000000       0.00000000       0.00000000       7.85400000" Properties=species:S:1:pos:R:3:Z:I:1:dft_force:R:3
Pd              7.84659000      7.84659000      0.00000000      46      0.63066500     -0.52976400      0.00220900
Pd              7.74841000      1.85791000      1.96350000      46      1.26624000      1.91548100     -0.00090100
Pd              0.16547000      4.09247000      3.92700000      46     -0.69484800     -1.11965800     -0.01775700
Pd              7.71187000      5.74837000      5.89050000      46      2.04971900      2.62930000      0.01682300
Pd              2.08018000      0.11668000      1.96350000      46     -1.29705500     -0.21182700     -0.00919500
Pd              1.95609000      1.95609000      3.92700000      46      0.09398900      0.09185800      0.00781700
Pd              1.85791000      3.82141000      5.89050000      46      0.79444600      0.15440700      0.01125500
Pd              2.12897000      6.05597000      0.00000000      46     -3.56556100     -2.66564900     -0.00676900
Pd              3.75974000      7.68674000      3.92700000      46      3.59550800      2.68895300      0.00759600
Pd              4.04368000      2.08018000      5.89050000      46     -0.83838300     -0.20510200     -0.01138900
Pd              3.91959000      3.91959000      0.00000000      46     -0.05684000      0.05034400     -0.00725500
Pd              3.82141000      5.78491000      1.96350000      46      1.22346200      0.12018500      0.00815400
Pd              6.02421000      0.13371000      5.89050000      46     -1.87090000     -2.40714100     -0.01731900
Pd              5.72324000      1.79624000     -0.00000000      46      0.76707100      1.07920500      0.01790400
Pd              6.00718000      4.04368000      1.96350000      46     -1.52988700     -2.20277500      0.00069800
Pd              5.88309000      5.88309000      3.92700000      46     -0.56764000      0.61222200     -0.00187300
Pd              1.95609000      1.95609000      0.00000000      46      0.09399300      0.09186200      0.00781300
Pd              1.85791000      3.82141000      1.96350000      46      0.79445400      0.15440400      0.01125000
Pd              2.12897000      6.05597000      3.92700000      46     -3.56556800     -2.66564900     -0.00676200
Pd              2.08018000      0.11668000      5.89050000      46     -1.29705000     -0.21181600     -0.00919500
Pd              4.04368000      2.08018000      1.96350000      46     -0.83837800     -0.20510000     -0.01139000
Pd              3.91959000      3.91959000      3.92700000      46     -0.05683900      0.05034300     -0.00725600
Pd              3.82141000      5.78491000      5.89050000      46      1.22346200      0.12018900      0.00815600
Pd              3.75974000      7.68674000      0.00000000      46      3.59550900      2.68895100      0.00759400
Pd              5.72324000      1.79624000      3.92700000      46      0.76707600      1.07919500      0.01789300
Pd              6.00718000      4.04368000      5.89050000      46     -1.52989100     -2.20280100      0.00070200
Pd              5.88309000      5.88309000      0.00000000      46     -0.56765900      0.61221600     -0.00186400
Pd              6.02421000      0.13371000      1.96350000      46     -1.87086900     -2.40714300     -0.01731900
Pd              7.74841000      1.85791000      5.89050000      46      1.26624300      1.91547600     -0.00091200
Pd              0.16547000      4.09247000      0.00000000      46     -0.69483900     -1.11965500     -0.01775000
Pd              7.71187000      5.74837000      1.96350000      46      2.04970400      2.62927400      0.01683500
Pd              7.84659000      7.84659000      3.92700000      46      0.63066300     -0.52978400      0.00220900
