32
dft_energy=-166.30379840 dft_virial="6.34207764       0.43517641      -0.04061957       0.43517641       6.82220682       0.78024469      -0.04061957       0.78024469       6.11252098" config_type=ph cutoff=-1.00000000 nneightol=1.20000000 pbc="T T T" Lattice="7.85400000      -0.00000000      -0.00000000      -0.00000000       7.85400000       0.00000000       0.00000000       0.00000000       7.85400000" Properties=species:S:1:pos:R:3:Z:I:1:dft_force:R:3
Pd              0.07204000      0.07204000      0.00000000      46      0.06423300     -0.08767100      0.07547400
Pd              0.12221000      2.08571000      1.96350000      46     -0.26997600     -0.22044000     -0.17266200
Pd              0.06681000      3.99381000      3.92700000      46      0.20008100      0.04218400     -0.16956700
Pd              7.80769000      5.84419000      5.89050000      46      1.04511500      1.07093200      0.01060800
Pd              2.07319000      0.10969000      1.96350000      46     -0.15686500     -0.07041700      0.21594200
Pd              2.07024000      2.07024000      3.92700000      46     -0.07814200     -0.14400900     -0.04431300
Pd              1.97507000      3.93857000      5.89050000      46      0.30475400      0.27908600      0.00400700
Pd              2.07319000      6.00019000      0.00000000      46     -0.51549300     -0.38301300     -0.06359900
Pd              4.04921000      0.12221000      3.92700000      46     -0.24022300     -0.27194800      0.15129800
Pd              3.99381000      2.03031000      5.89050000      46      0.05644700      0.08887100      0.00396800
Pd              3.99904000      3.99904000      0.00000000      46      0.03119400     -0.00150700     -0.00530100
Pd              4.04921000      6.01271000      1.96350000      46     -0.23647400     -0.32192100      0.21145800
Pd              5.99724000      0.10674000      5.89050000      46     -0.53143200     -0.56229000     -0.02995800
Pd              5.90839000      1.98139000     -0.00000000      46      0.36816700      0.41424200      0.16719900
Pd              6.00019000      4.03669000      1.96350000      46     -0.07856200     -0.14267300     -0.18073600
Pd              5.99724000      5.99724000      3.92700000      46     -0.27567800     -0.02511100     -0.01501700
Pd              2.03554000      2.03554000      0.00000000      46      0.02104200      0.02686600      0.00685200
Pd              2.08571000      4.04921000      1.96350000      46     -0.12147700     -0.12510000      0.00145300
Pd              2.03031000      5.95731000      3.92700000      46      0.02209700      0.14723800      0.13015900
Pd              2.03031000      0.06681000      5.89050000      46     -0.12342700     -0.09599600     -0.19543700
Pd              4.03669000      2.07319000      1.96350000      46     -0.11065000     -0.08982000      0.02867100
Pd              4.03374000      4.03374000      3.92700000      46     -0.12810400     -0.11688500     -0.03861900
Pd              3.93857000      5.90207000      5.89050000      46      0.46001800      0.43936600     -0.15940500
Pd              3.94489000      0.01789000     -0.00000000      46      0.54041300      0.48807500     -0.21526900
Pd              6.01271000      2.08571000      3.92700000      46     -0.34972200     -0.28355700     -0.22711600
Pd              5.95731000      3.99381000      5.89050000      46     -0.30296700     -0.30880200      0.20129100
Pd              5.96254000      5.96254000      0.00000000      46     -0.11024200      0.07760400     -0.02071200
Pd              5.96254000      0.07204000      1.96350000      46      0.27412400      0.24644500      0.00078500
Pd              0.01157000      1.97507000      5.89050000      46      0.57166100      0.60392300      0.22072000
Pd              0.10969000      4.03669000      0.00000000      46     -0.25874600     -0.40388000      0.22572600
Pd              0.10674000      5.99724000      1.96350000      46     -0.03833000     -0.03025300     -0.00206500
Pd              0.10674000      0.10674000      3.92700000      46     -0.03283700     -0.23953900     -0.11583500
