32
dft_energy=-164.18038045 dft_virial="15.36821285      -2.58725762      -2.53894534      -2.58725762      15.46342224       3.02725407      -2.53894534       3.02725407      14.70903462" config_type=ph cutoff=-1.00000000 nneightol=1.20000000 pbc="T T T" Lattice="7.85400000      -0.00000000      -0.00000000      -0.00000000       7.85400000       0.00000000       0.00000000       0.00000000       7.85400000" Properties=species:S:1:pos:R:3:Z:I:1:dft_force:R:3
Pd              7.74721000      0.10679000      0.10679000      46      1.14278200     -0.82613900     -0.82074300
Pd              7.80728000      2.01022000      2.01022000      46     -0.68081800     -0.10904200     -0.11557300
Pd              0.09552000      3.83148000      3.83148000      46     -1.48015200      1.12737500      1.12994000
Pd              0.06975000      5.82075000      5.82075000      46     -0.29692100      0.29044900      0.29114800
Pd              1.85671000      0.10679000      2.07029000      46      0.63934100     -0.55999200     -0.57216600
Pd              1.91678000      2.01022000      3.97372000      46      0.62202700     -0.75975900     -0.62892400
Pd              2.05902000      3.83148000      5.79498000      46     -1.13446500      1.13463900      1.46960400
Pd              1.91678000      5.93722000      0.04672000      46      0.37923800      0.30998000     -0.86134400
Pd              3.82021000      0.10679000      4.03379000      46      0.57417400     -0.57839300     -0.63233600
Pd              3.88028000      2.01022000      5.93722000      46      0.10556400     -0.09380700      0.67808100
Pd              3.82021000      4.03379000      0.10679000      46      0.57362700     -0.64219600     -0.56089600
Pd              3.88028000      5.93722000      2.01022000      46      0.10817200      0.69332800     -0.10822300
Pd              5.78371000      0.10679000      5.99729000      46      0.82583600     -0.83650100     -1.14623700
Pd              5.91148000      1.94252000      7.83302000      46     -0.61193200      1.27667300      0.62114700
Pd              5.78371000      4.03379000      2.07029000      46      0.54858200     -0.64159400     -0.57456900
Pd              5.84378000      5.93722000      3.97372000      46      0.86434600      0.32228800     -0.36955500
Pd              1.85671000      2.07029000      0.10679000      46      0.63402000     -0.56762500     -0.54832500
Pd              1.91678000      3.97372000      2.01022000      46      0.62727000     -0.63309700     -0.74968900
Pd              2.05902000      5.79498000      3.83148000      46     -1.13450200      1.49590500      1.14206100
Pd              1.91678000      0.04672000      5.93722000      46      0.37883200     -0.87610600      0.30400100
Pd              3.82021000      2.07029000      2.07029000      46      0.68145900     -0.68816500     -0.68620600
Pd              3.88028000      3.97372000      3.97372000      46      0.77089900     -0.63261300     -0.62486800
Pd              4.02252000      5.79498000      5.79498000      46     -1.29579300      1.31241900      1.30098900
Pd              3.94798000      7.83302000      7.83302000      46     -1.27531600      0.60776400      0.60524000
Pd              5.78371000      2.07029000      4.03379000      46      0.55203500     -0.57209500     -0.63503800
Pd              5.84378000      3.97372000      5.93722000      46      0.86239700     -0.37789700      0.30188500
Pd              5.78371000      5.99729000      0.10679000      46      0.81912800     -1.14131800     -0.82561000
Pd              5.91148000      7.83302000      1.94252000      46     -0.61139000      0.61183500      1.27202000
Pd              0.09552000      1.86798000      5.79498000      46     -1.28852300      1.31314200      1.30313800
Pd              7.80728000      3.97372000      0.04672000      46     -0.30140500     -0.38991600     -0.86040100
Pd              0.09552000      5.79498000      1.86798000      46     -1.29254900      1.31054200      1.29109900
Pd              7.80728000      0.04672000      3.97372000      46     -0.30596300     -0.88008400     -0.38965100
