32
dft_energy=-162.73294622 dft_virial="22.11109464       1.54533074       0.28770859       1.54533074      22.75552548       0.03760478       0.28770859       0.03760478      20.16041791" config_type=ph cutoff=-1.00000000 nneightol=1.20000000 pbc="T T T" Lattice="7.85400000      -0.00000000      -0.00000000      -0.00000000       7.85400000       0.00000000       0.00000000       0.00000000       7.85400000" Properties=species:S:1:pos:R:3:Z:I:1:dft_force:R:3
Pd              0.00000000      0.00000000      0.14420000      46     -0.55515600      0.00067600     -0.89363000
Pd              0.00000000      1.96350000      2.09081000      46     -0.01108100     -0.58510300     -0.89745700
Pd             -0.00000000      3.92700000      3.69251000      46     -0.47616900      0.25502900      2.16671500
Pd              0.00000000      5.89050000      5.92949000      46     -0.30830800      0.30969300     -0.85814500
Pd              1.96350000     -0.00000000      1.73392000      46      0.31286200     -0.51798000      2.16492900
Pd              1.96350000      1.96350000      4.07120000      46     -0.59694000      0.52445000     -1.73316000
Pd              1.96350000      3.92700000      6.01781000      46      0.50107400     -0.50311700     -1.44426400
Pd              1.96350000      5.89050000      7.61951000      46     -0.24791200      0.47967100      2.16627400
Pd              3.92700000      0.00000000      3.94562000      46      0.09188000     -0.25796200     -0.51373300
Pd              3.92700000      1.96350000      5.66092000      46      0.35026300     -0.34430300      2.73809600
Pd              3.92700000      3.92700000      0.14420000      46     -0.52795000      0.59853500     -1.73161900
Pd              3.92700000      5.89050000      2.09081000      46      0.58447500      0.00350900     -0.90383200
Pd              5.89050000      0.00000000      6.10687000      46      0.10526700     -0.11289300     -1.00486600
Pd              5.89050000      1.96350000      0.01862000      46      0.25951100     -0.09625700     -0.52044000
Pd              5.89050000      3.92700000      1.73392000      46      0.52002200     -0.30841200      2.15813500
Pd              5.89050000      5.89050000      4.07120000      46     -0.00157100      0.55434200     -0.89326000
Pd              1.96350000      1.96350000      0.14420000      46     -0.59724000      0.52492400     -1.73364300
Pd              1.96350000      3.92700000      2.09081000      46      0.50061500     -0.50263600     -1.44335700
Pd              1.96350000      5.89050000      3.69251000      46     -0.24776000      0.47906000      2.16567500
Pd              1.96350000      0.00000000      5.66092000      46      0.31278100     -0.51766000      2.16408700
Pd              3.92700000      1.96350000      1.73392000      46      0.35038000     -0.34447100      2.73924700
Pd              3.92700000      3.92700000      4.07120000      46     -0.52749800      0.59821200     -1.73110400
Pd              3.92700000      5.89050000      6.01781000      46      0.58464800      0.00335200     -0.90414100
Pd              3.92700000     -0.00000000      0.01862000      46      0.09195100     -0.25797800     -0.51390300
Pd              5.89050000      1.96350000      3.94562000      46      0.25945600     -0.09622200     -0.52026000
Pd              5.89050000      3.92700000      5.66092000      46      0.51973000     -0.30827700      2.15724300
Pd              5.89050000      5.89050000      0.14420000      46     -0.00163100      0.55452100     -0.89340400
Pd              5.89050000     -0.00000000      2.17987000      46      0.10522600     -0.11284000     -1.00427200
Pd              0.00000000      1.96350000      6.01781000      46     -0.01090200     -0.58531500     -0.89781600
Pd              0.00000000      3.92700000      7.61951000      46     -0.47676700      0.25519400      2.16736000
Pd             -0.00000000      5.89050000      2.00249000      46     -0.30826900      0.30963500     -0.85813500
Pd              0.00000000      0.00000000      4.07120000      46     -0.55498800      0.00062300     -0.89331900
