 vasp.5.3.3 18Dez12 (build Jun 21 2016 14:15:03) complex                        
  
 executed on             LinuxIFC date 2017.10.11  15:33:49
 serial version


--------------------------------------------------------------------------------------------------------


 INCAR:
 POTCAR:    PAW_PBE Pd_pv 28Jan2005               
 POTCAR:    PAW_PBE Pd_pv 28Jan2005               
   VRHFIN =Pd: 4p5s4d                                                           
   LEXCH  = PE                                                                  
   EATOM  =  2621.5550 eV,  192.6789 Ry                                         
                                                                                
   TITEL  = PAW_PBE Pd_pv 28Jan2005                                             
   LULTRA =        F    use ultrasoft PP ?                                      
   IUNSCR =        1    unscreen: 0-lin 1-nonlin 2-no                           
   RPACOR =    2.250    partial core radius                                     
   POMASS =  106.420; ZVAL   =   16.000    mass and valenz                      
   RCORE  =    2.400    outmost cutoff radius                                   
   RWIGS  =    2.300; RWIGS  =    1.217    wigner-seitz radius (au A)           
   ENMAX  =  250.925; ENMIN  =  188.194 eV                                      
   ICORE  =        3    local potential                                         
   LCOR   =        T    correct aug charges                                     
   LPAW   =        T    paw PP                                                  
   EAUG   =  473.067                                                            
   DEXC   =    0.000                                                            
   RMAX   =    2.449    core radius for proj-oper                               
   RAUG   =    1.300    factor for augmentation sphere                          
   RDEP   =    2.405    radius for radial grids                                 
   RDEPT  =    1.966    core radius for aug-charge                              
                                                                                
   Atomic configuration                                                         
   11 entries                                                                   
     n  l   j            E        occ.                                          
     1  0  0.50    -24164.6632   2.0000                                         
     2  0  0.50     -3530.9218   2.0000                                         
     2  1  1.50     -3165.6822   6.0000                                         
     3  0  0.50      -639.4578   2.0000                                         
     3  1  1.50      -519.4532   6.0000                                         
     3  2  2.50      -328.9758  10.0000                                         
     4  0  0.50       -88.7014   2.0000                                         
     4  1  1.50       -54.4541   6.0000                                         
     4  2  2.50        -6.6878   9.0000                                         
     5  0  0.50        -4.3543   1.0000                                         
     4  3  2.50        -1.3606   0.0000                                         
   Description                                                                  
     l       E           TYP  RCUT    TYP  RCUT                                 
     1    -54.4540524     23  2.100                                             
     1      4.0817478     23  2.100                                             
     2     -6.6878326     23  2.400                                             
     2     -4.0817478     23  2.400                                             
     0     -4.3542962     23  2.400                                             
     0     13.6058260     23  2.400                                             
     3     -5.4423304     23  2.400                                             
  local pseudopotential read in
  partial core-charges read in
  partial kinetic energy density read in
  atomic valenz-charges read in
  non local Contribution for L=           1  read in
    real space projection operators read in
  non local Contribution for L=           1  read in
    real space projection operators read in
  non local Contribution for L=           2  read in
    real space projection operators read in
  non local Contribution for L=           2  read in
    real space projection operators read in
  non local Contribution for L=           0  read in
    real space projection operators read in
  non local Contribution for L=           0  read in
    real space projection operators read in
    PAW grid and wavefunctions read in
 
   number of l-projection  operators is LMAX  =           6
   number of lm-projection operators is LMMAX =          18
 
  PAW_PBE Pd_pv 28Jan2005               :
 energy of atom  1       EATOM=-2621.5550
 kinetic energy error for atom=    0.0092 (will be added to EATOM!!)
 
 
 POSCAR: Pd                                      
  positions in cartesian coordinates
  No initial velocities read in
 exchange correlation table for  LEXCH =        8
   RHO(1)=    0.500       N(1)  =     2000
   RHO(2)=  100.500       N(2)  =     4000
 


--------------------------------------------------------------------------------------------------------


 ion  position               nearest neighbor table
   1  0.001  0.000  0.000-   5 2.77   9 2.77   2 2.77   8 2.77  12 2.77  15 2.78  15 2.78   8 2.78
                            12 2.78   4 2.78  11 2.79   7 2.79
   2  0.750  0.250  0.250-   1 2.77   3 2.78   6 2.78   8 2.78   9 2.78  16 2.78   5 2.78  16 2.78
                             5 2.78   9 2.78  10 2.78  12 2.78
   3  0.500  0.500  0.500-   2 2.78   4 2.78   5 2.78   7 2.78  10 2.78  13 2.78   6 2.78  13 2.78
                             6 2.78  10 2.78   9 2.78  11 2.78
   4  0.250  0.750  0.750-   3 2.78   6 2.78   8 2.78  11 2.78  14 2.78   7 2.78  14 2.78   7 2.78
                            11 2.78  10 2.78  12 2.78   1 2.78
   5  0.250  0.750  0.250-   1 2.77   3 2.78   6 2.78   8 2.78   9 2.78  16 2.78   2 2.78   9 2.78
                             2 2.78  16 2.78  13 2.78  15 2.78
   6  0.000  0.000  0.500-   2 2.78   4 2.78   5 2.78   7 2.78  10 2.78  13 2.78   3 2.78  10 2.78
                             3 2.78  13 2.78  14 2.78  16 2.78
   7  0.750  0.250  0.750-   3 2.78   6 2.78   8 2.78  11 2.78  14 2.78   4 2.78  11 2.78   4 2.78
                            14 2.78  13 2.78  15 2.78   1 2.79
   8  0.500  0.500  0.000-   1 2.77   2 2.78   4 2.78   5 2.78   7 2.78  12 2.78  15 2.78  12 2.78
                            15 2.78  14 2.78  16 2.78   1 2.78
   9  0.250  0.250  0.750-   1 2.77  10 2.78  12 2.78  13 2.78  15 2.78   2 2.78   5 2.78   5 2.78
                            16 2.78   2 2.78  16 2.78   3 2.78
  10  0.000  0.500  0.000-   9 2.78  11 2.78  14 2.78  16 2.78   3 2.78   6 2.78   6 2.78  13 2.78
                             3 2.78  13 2.78   2 2.78   4 2.78
  11  0.750  0.750  0.250-  10 2.78  12 2.78  13 2.78  15 2.78   4 2.78   7 2.78   7 2.78  14 2.78
                             4 2.78  14 2.78   3 2.78   1 2.79
  12  0.500  0.000  0.500-   1 2.77   9 2.78  11 2.78  14 2.78  16 2.78   8 2.78   8 2.78  15 2.78
                            15 2.78   2 2.78   4 2.78   1 2.78
  13  0.500  0.000  0.000-   9 2.78  11 2.78  14 2.78  16 2.78   3 2.78   6 2.78   3 2.78  10 2.78
                             6 2.78  10 2.78   5 2.78   7 2.78
  14  0.250  0.250  0.250-  10 2.78  12 2.78  13 2.78  15 2.78   4 2.78   7 2.78   4 2.78  11 2.78
                             7 2.78  11 2.78   6 2.78   8 2.78
  15  0.000  0.500  0.500-   9 2.78  11 2.78  14 2.78  16 2.78   8 2.78  12 2.78   8 2.78  12 2.78
                             5 2.78   7 2.78   1 2.78   1 2.78
  16  0.750  0.750  0.750-  10 2.78  12 2.78  13 2.78  15 2.78   2 2.78   5 2.78   2 2.78   9 2.78
                             5 2.78   9 2.78   6 2.78   8 2.78
 

IMPORTANT INFORMATION: All symmetrisations will be switched off!
NOSYMM: (Re-)initialisation of all symmetry stuff for point group C_1.

 
 
 KPOINTS: Server version 2017.05.18. K-point grid 
  k-points in reciprocal lattice
Space group operators:
 irot       det(A)        alpha          n_x          n_y          n_z        tau_x        tau_y        tau_z
    1     1.000000     0.000000     1.000000     0.000000     0.000000     0.000000     0.000000     0.000000


--------------------------------------------------------------------------------------------------------




 Dimension of arrays:
   k-points           NKPTS =     47   k-points in BZ     NKDIM =     47   number of bands    NBANDS=    153
   number of dos      NEDOS =    301   number of ions     NIONS =     16
   non local maximal  LDIM  =      6   non local SUM 2l+1 LMDIM =     18
   total plane-waves  NPLWV = 343000
   max r-space proj   IRMAX =      1   max aug-charges    IRDMAX= 453645
   dimension x,y,z NGX =    70 NGY =   70 NGZ =   70
   dimension x,y,z NGXF=   140 NGYF=  140 NGZF=  140
   support grid    NGXF=   280 NGYF=  280 NGZF=  280
   ions per type =              16
 NGX,Y,Z   is equivalent  to a cutoff of  12.10, 12.10, 12.10 a.u.
 NGXF,Y,Z  is equivalent  to a cutoff of  24.20, 24.20, 24.20 a.u.


 I would recommend the setting:
   dimension x,y,z NGX =    70 NGY =   70 NGZ =   70
 SYSTEM =  unknown system                          
 POSCAR =  Pd                                      

 Startparameter for this run:
   NWRITE =      2    write-flag & timer
   PREC   = a         normal or accurate (medium, high low for compatibility)
   ISTART =      0    job   : 0-new  1-cont  2-samecut
   ICHARG =      2    charge: 1-file 2-atom 10-const
   ISPIN  =      1    spin polarized calculation?
   LNONCOLLINEAR =      F non collinear calculations
   LSORBIT =      F    spin-orbit coupling
   INIWAV =      1    electr: 0-lowe 1-rand  2-diag
   LASPH  =      F    aspherical Exc in radial PAW
   METAGGA=      F    non-selfconsistent MetaGGA calc.

 Electronic Relaxation 1
   ENCUT  =  500.0 eV  36.75 Ry    6.06 a.u.  17.54 17.54 17.54*2*pi/ulx,y,z
   ENINI  =  500.0     initial cutoff
   ENAUG  =  473.1 eV  augmentation charge cutoff
   NELM   =     60;   NELMIN=  2; NELMDL=  0     # of ELM steps 
   EDIFF  = 0.1E-07   stopping-criterion for ELM
   LREAL  =      F    real-space projection
   NLSPLINE    = F    spline interpolate recip. space projectors
   LCOMPAT=      F    compatible to vasp.4.4
   GGA_COMPAT  = T    GGA compatible to vasp.4.4-vasp.4.6
   LMAXPAW     = -100 max onsite density
   LMAXMIX     =    2 max onsite mixed and CHGCAR
   VOSKOWN=      0    Vosko Wilk Nusair interpolation
   ROPT   =    0.00000
 Ionic relaxation
   EDIFFG = 0.1E-06   stopping-criterion for IOM
   NSW    =      0    number of steps for IOM
   NBLOCK =      1;   KBLOCK =      1    inner block; outer block 
   IBRION =     -1    ionic relax: 0-MD 1-quasi-New 2-CG
   NFREE  =      0    steps in history (QN), initial steepest desc. (CG)
   ISIF   =      2    stress and relaxation
   IWAVPR =      0    prediction:  0-non 1-charg 2-wave 3-comb
   ISYM   =      0    0-nonsym 1-usesym 2-fastsym
   LCORR  =      T    Harris-Foulkes like correction to forces

   POTIM  = 0.5000    time-step for ionic-motion
   TEIN   =    0.0    initial temperature
   TEBEG  =    0.0;   TEEND  =   0.0 temperature during run
   SMASS  =  -3.00    Nose mass-parameter (am)
   estimated Nose-frequenzy (Omega)   =  0.10E-29 period in steps =****** mass=  -0.211E-26a.u.
   SCALEE = 1.0000    scale energy and forces
   NPACO  =    256;   APACO  = 16.0  distance and # of slots for P.C.
   PSTRESS=    0.0 pullay stress

  Mass of Ions in am
   POMASS = 106.42
  Ionic Valenz
   ZVAL   =  16.00
  Atomic Wigner-Seitz radii
   RWIGS  =  -1.00
  virtual crystal weights 
   VCA    =   1.00
   NELECT =     256.0000    total number of electrons
   NUPDOWN=      -1.0000    fix difference up-down

 DOS related values:
   EMIN   =  10.00;   EMAX   =-10.00  energy-range for DOS
   EFERMI =   0.00
   ISMEAR =     0;   SIGMA  =   0.10  broadening in eV -4-tet -1-fermi 0-gaus

 Electronic relaxation 2 (details)
   IALGO  =     38    algorithm
   LDIAG  =      T    sub-space diagonalisation (order eigenvalues)
   LSUBROT=      T    optimize rotation matrix (better conditioning)
   TURBO    =      0    0=normal 1=particle mesh
   IRESTART =      0    0=no restart 2=restart with 2 vectors
   NREBOOT  =      0    no. of reboots
   NMIN     =      0    reboot dimension
   EREF     =   0.00    reference energy to select bands
   IMIX   =      4    mixing-type and parameters
     AMIX     =   0.40;   BMIX     =  1.00
     AMIX_MAG =   1.60;   BMIX_MAG =  1.00
     AMIN     =   0.10
     WC   =   100.;   INIMIX=   1;  MIXPRE=   1;  MAXMIX= -45

 Intra band minimization:
   WEIMIN = 0.0000     energy-eigenvalue tresh-hold
   EBREAK =  0.16E-10  absolut break condition
   DEPER  =   0.30     relativ break condition  

   TIME   =   0.40     timestep for ELM

  volume/ion in A,a.u.               =      15.14       102.17
  Fermi-wavevector in a.u.,A,eV,Ry     =   1.667531  3.151177 37.833172  2.780660
  Thomas-Fermi vector in A             =   2.753537
 
 Write flags
   LWAVE  =      F    write WAVECAR
   LCHARG =      T    write CHGCAR
   LVTOT  =      F    write LOCPOT, total local potential
   LVHAR  =      F    write LOCPOT, Hartree potential only
   LELF   =      F    write electronic localiz. function (ELF)
   LORBIT =      0    0 simple, 1 ext, 2 COOP (PROOUT)


 Dipole corrections
   LMONO  =      F    monopole corrections only (constant potential shift)
   LDIPOL =      F    correct potential (dipole corrections)
   IDIPOL =      0    1-x, 2-y, 3-z, 4-all directions 
   EPSILON=  1.0000000 bulk dielectric constant

 Exchange correlation treatment:
   GGA     =    --    GGA type
   LEXCH   =     8    internal setting for exchange type
   VOSKOWN=      0    Vosko Wilk Nusair interpolation
   LHFCALC =     F    Hartree Fock is set to
   LHFONE  =     F    Hartree Fock one center treatment
   AEXX    =    0.0000 exact exchange contribution

 Linear response parameters
   LEPSILON=     F    determine dielectric tensor
   LRPA    =     F    only Hartree local field effects (RPA)
   LNABLA  =     F    use nabla operator in PAW spheres
   LVEL    =     F    velocity operator in full k-point grid
   LINTERFAST=   F  fast interpolation
   KINTER  =     0    interpolate to denser k-point grid
   CSHIFT  =0.1000    complex shift for real part using Kramers Kronig
   OMEGAMAX=  -1.0    maximum frequency
   DEG_THRESHOLD= 0.2000000E-02 threshold for treating states as degnerate
   RTIME   =    0.100 relaxation time in fs

 Orbital magnetization related:
   ORBITALMAG=     F  switch on orbital magnetization
   LCHIMAG   =     F  perturbation theory with respect to B field
   DQ        =  0.001000  dq finite difference perturbation B field



--------------------------------------------------------------------------------------------------------


 Static calculation
 charge density and potential will be updated during run
 non-spin polarized calculation
 Variant of blocked Davidson
 Davidson routine will perform the subspace rotation
 perform sub-space diagonalisation
    after iterative eigenvector-optimisation
 modified Broyden-mixing scheme, WC =      100.0
 initial mixing is a Kerker type mixing with AMIX =  0.4000 and BMIX =      1.0000
 Hartree-type preconditioning will be used
 using additional bands           25
 reciprocal scheme for non local part
 use partial core corrections
 calculate Harris-corrections to forces 
   (improved forces if not selfconsistent)
 use gradient corrections 
 use of overlap-Matrix (Vanderbilt PP)
 Gauss-broadening in eV      SIGMA  =   0.10


--------------------------------------------------------------------------------------------------------


  energy-cutoff  :      500.00
  volume of cell :      242.24
      direct lattice vectors                 reciprocal lattice vectors
     7.854000000  3.927000000  3.927000000     0.190985485 -0.063661828 -0.063661828
     3.927000000  7.854000000  3.927000000    -0.063661828  0.190985485 -0.063661828
     3.927000000  3.927000000  7.854000000    -0.063661828 -0.063661828  0.190985485

  length of vectors
     9.619146220  9.619146220  9.619146220     0.211142398  0.211142398  0.211142398


 
 k-points in units of 2pi/SCALE and weight: Server version 2017.05.18. K-point grid 
  -0.09718588  0.11140820  0.10734468       0.021
  -0.04097384  0.01591546  0.09583137       0.021
  -0.04842362  0.11140820  0.02065623       0.021
   0.00778842  0.01591546  0.00914292       0.021
  -0.06332320  0.04774637  0.12495327       0.021
  -0.00711116 -0.04774637  0.11343996       0.021
  -0.01456095  0.04774637  0.03826482       0.021
  -0.02201074  0.14323911 -0.03691032       0.021
  -0.02946053 -0.01591546  0.14256186       0.021
  -0.03691032  0.07957729  0.06738672       0.021
   0.01930172 -0.01591546  0.05587341       0.021
   0.01185194  0.07957729 -0.01930172       0.021
   0.00440215 -0.07957729  0.16017045       0.021
  -0.00304764  0.01591546  0.08499531       0.021
  -0.01049743  0.11140820  0.00982018       0.021
   0.04571461  0.01591546 -0.00169313       0.021
  -0.02539701  0.04774637  0.11411721       0.021
   0.03081503 -0.04774637  0.10260390       0.021
   0.02336525  0.04774637  0.02742877       0.021
   0.01591546  0.14323911 -0.04774637       0.021
   0.07212750  0.04774637 -0.05925968       0.021
   0.00101588  0.07957729  0.05655067       0.021
   0.05722792 -0.01591546  0.04503736       0.021
   0.04977813  0.07957729 -0.03013778       0.021
   0.10599017 -0.01591546 -0.04165109       0.021
   0.03487855  0.01591546  0.07415926       0.021
   0.02742877  0.11140820 -0.00101588       0.021
   0.08364081  0.01591546 -0.01252919       0.021
   0.07619102  0.11140820 -0.08770433       0.021
   0.06874123 -0.04774637  0.09176785       0.021
   0.06129144  0.04774637  0.01659271       0.021
   0.11750348 -0.04774637  0.00507940       0.021
   0.11005369  0.04774637 -0.07009574       0.021
   0.03894208  0.07957729  0.04571461       0.021
   0.09515412 -0.01591546  0.03420130       0.021
   0.08770433  0.07957729 -0.04097384       0.021
   0.14391637 -0.01591546 -0.05248715       0.021
   0.07280475  0.01591546  0.06332320       0.021
   0.12901679 -0.07957729  0.05180989       0.021
   0.12156700  0.01591546 -0.02336525       0.021
   0.11411721  0.11140820 -0.09854038       0.021
   0.10666743 -0.04774637  0.08093179       0.021
   0.09921764  0.04774637  0.00575665       0.021
   0.08973609 -0.01591546  0.07212750       0.021
   0.08228630  0.07957729 -0.00304764       0.021
   0.13849834 -0.01591546 -0.01456095       0.021
   0.13104855  0.07957729 -0.08973609       0.021
 
 k-points in reciprocal lattice and weights: Server version 2017.05.18. K-point grid 
   0.09574468  0.91489362  0.89893617       0.021
   0.11702128  0.34042553  0.65425532       0.021
   0.13829787  0.76595745  0.40957447       0.021
   0.15957447  0.19148936  0.16489362       0.021
   0.18085106  0.61702128  0.92021277       0.021
   0.20212766  0.04255319  0.67553191       0.021
   0.22340426  0.46808511  0.43085106       0.021
   0.24468085  0.89361702  0.18617021       0.021
   0.26595745  0.31914894  0.94148936       0.021
   0.28723404  0.74468085  0.69680851       0.021
   0.30851064  0.17021277  0.45212766       0.021
   0.32978723  0.59574468  0.20744681       0.021
   0.35106383  0.02127660  0.96276596       0.021
   0.37234043  0.44680851  0.71808511       0.021
   0.39361702  0.87234043  0.47340426       0.021
   0.41489362  0.29787234  0.22872340       0.021
   0.43617021  0.72340426  0.98404255       0.021
   0.45744681  0.14893617  0.73936170       0.021
   0.47872340  0.57446809  0.49468085       0.021
   0.50000000  1.00000000  0.25000000       0.021
   0.52127660  0.42553191  0.00531915       0.021
   0.54255319  0.85106383  0.76063830       0.021
   0.56382979  0.27659574  0.51595745       0.021
   0.58510638  0.70212766  0.27127660       0.021
   0.60638298  0.12765957  0.02659574       0.021
   0.62765957  0.55319149  0.78191489       0.021
   0.64893617  0.97872340  0.53723404       0.021
   0.67021277  0.40425532  0.29255319       0.021
   0.69148936  0.82978723  0.04787234       0.021
   0.71276596  0.25531915  0.80319149       0.021
   0.73404255  0.68085106  0.55851064       0.021
   0.75531915  0.10638298  0.31382979       0.021
   0.77659574  0.53191489  0.06914894       0.021
   0.79787234  0.95744681  0.82446809       0.021
   0.81914894  0.38297872  0.57978723       0.021
   0.84042553  0.80851064  0.33510638       0.021
   0.86170213  0.23404255  0.09042553       0.021
   0.88297872  0.65957447  0.84574468       0.021
   0.90425532  0.08510638  0.60106383       0.021
   0.92553191  0.51063830  0.35638298       0.021
   0.94680851  0.93617021  0.11170213       0.021
   0.96808511  0.36170213  0.86702128       0.021
   0.98936170  0.78723404  0.62234043       0.021
   0.92553191  0.51063830  0.85638298       0.021
   0.94680851  0.93617021  0.61170213       0.021
   0.96808511  0.36170213  0.36702128       0.021
   0.98936170  0.78723404  0.12234043       0.021
 
 position of ions in fractional coordinates (direct lattice) 
   0.00103959  0.00000000  0.00000000
   0.75000000  0.25000000  0.25000000
   0.50000000  0.50000000  0.50000000
   0.25000000  0.75000000  0.75000000
   0.25000000  0.75000000  0.25000000
   0.00000000  0.00000000  0.50000000
   0.75000000  0.25000000  0.75000000
   0.50000000  0.50000000  0.00000000
   0.25000000  0.25000000  0.75000000
   0.00000000  0.50000000  0.00000000
   0.75000000  0.75000000  0.25000000
   0.50000000  0.00000000  0.50000000
   0.50000000  0.00000000  0.00000000
   0.25000000  0.25000000  0.25000000
   0.00000000  0.50000000  0.50000000
   0.75000000  0.75000000  0.75000000
 
 position of ions in cartesian coordinates  (Angst):
   0.00816497  0.00408248  0.00408248
   7.85400000  5.89050000  5.89050000
   7.85400000  7.85400000  7.85400000
   7.85400000  9.81750000  9.81750000
   5.89050000  7.85400000  5.89050000
   1.96350000  1.96350000  3.92700000
   9.81750000  7.85400000  9.81750000
   5.89050000  5.89050000  3.92700000
   5.89050000  5.89050000  7.85400000
   1.96350000  3.92700000  1.96350000
   9.81750000  9.81750000  7.85400000
   5.89050000  3.92700000  5.89050000
   3.92700000  1.96350000  1.96350000
   3.92700000  3.92700000  3.92700000
   3.92700000  5.89050000  5.89050000
  11.78100000 11.78100000 11.78100000
 


--------------------------------------------------------------------------------------------------------


 k-point  1 :   0.0957 0.9149 0.8989  plane waves:    6155
 k-point  2 :   0.1170 0.3404 0.6543  plane waves:    6168
 k-point  3 :   0.1383 0.7660 0.4096  plane waves:    6165
 k-point  4 :   0.1596 0.1915 0.1649  plane waves:    6146
 k-point  5 :   0.1809 0.6170 0.9202  plane waves:    6165
 k-point  6 :   0.2021 0.0426 0.6755  plane waves:    6160
 k-point  7 :   0.2234 0.4681 0.4309  plane waves:    6126
 k-point  8 :   0.2447 0.8936 0.1862  plane waves:    6151
 k-point  9 :   0.2660 0.3191 0.9415  plane waves:    6149
 k-point 10 :   0.2872 0.7447 0.6968  plane waves:    6154
 k-point 11 :   0.3085 0.1702 0.4521  plane waves:    6132
 k-point 12 :   0.3298 0.5957 0.2074  plane waves:    6138
 k-point 13 :   0.3511 0.0213 0.9628  plane waves:    6149
 k-point 14 :   0.3723 0.4468 0.7181  plane waves:    6143
 k-point 15 :   0.3936 0.8723 0.4734  plane waves:    6142
 k-point 16 :   0.4149 0.2979 0.2287  plane waves:    6139
 k-point 17 :   0.4362 0.7234 0.9840  plane waves:    6155
 k-point 18 :   0.4574 0.1489 0.7394  plane waves:    6176
 k-point 19 :   0.4787 0.5745 0.4947  plane waves:    6116
 k-point 20 :   0.5000 1.0000 0.2500  plane waves:    6153
 k-point 21 :   0.5213 0.4255 0.0053  plane waves:    6156
 k-point 22 :   0.5426 0.8511 0.7606  plane waves:    6145
 k-point 23 :   0.5638 0.2766 0.5160  plane waves:    6141
 k-point 24 :   0.5851 0.7021 0.2713  plane waves:    6147
 k-point 25 :   0.6064 0.1277 0.0266  plane waves:    6162
 k-point 26 :   0.6277 0.5532 0.7819  plane waves:    6126
 k-point 27 :   0.6489 0.9787 0.5372  plane waves:    6145
 k-point 28 :   0.6702 0.4043 0.2926  plane waves:    6149
 k-point 29 :   0.6915 0.8298 0.0479  plane waves:    6144
 k-point 30 :   0.7128 0.2553 0.8032  plane waves:    6165
 k-point 31 :   0.7340 0.6809 0.5585  plane waves:    6133
 k-point 32 :   0.7553 0.1064 0.3138  plane waves:    6164
 k-point 33 :   0.7766 0.5319 0.0691  plane waves:    6165
 k-point 34 :   0.7979 0.9574 0.8245  plane waves:    6143
 k-point 35 :   0.8191 0.3830 0.5798  plane waves:    6142
 k-point 36 :   0.8404 0.8085 0.3351  plane waves:    6158
 k-point 37 :   0.8617 0.2340 0.0904  plane waves:    6156
 k-point 38 :   0.8830 0.6596 0.8457  plane waves:    6146
 k-point 39 :   0.9043 0.0851 0.6011  plane waves:    6149
 k-point 40 :   0.9255 0.5106 0.3564  plane waves:    6157
 k-point 41 :   0.9468 0.9362 0.1117  plane waves:    6148
 k-point 42 :   0.9681 0.3617 0.8670  plane waves:    6158
 k-point 43 :   0.9894 0.7872 0.6223  plane waves:    6142
 k-point 44 :   0.9255 0.5106 0.8564  plane waves:    6156
 k-point 45 :   0.9468 0.9362 0.6117  plane waves:    6154
 k-point 46 :   0.9681 0.3617 0.3670  plane waves:    6145
 k-point 47 :   0.9894 0.7872 0.1223  plane waves:    6148

 maximum number of plane-waves:      6176
 maximum index in each direction: 
   IXMAX=   17   IYMAX=   17   IZMAX=   17
   IXMIN=  -18   IYMIN=  -18   IZMIN=  -18

 WARNING: aliasing errors must be expected set NGX to  72 to avoid them
 WARNING: aliasing errors must be expected set NGY to  72 to avoid them
 WARNING: aliasing errors must be expected set NGZ to  72 to avoid them
 aliasing errors are usually negligible using standard VASP settings
 and one can safely disregard these warnings

 total amount of memory used by VASP on root node   964113. kBytes
========================================================================

   base      :      30000. kBytes
   nonl-proj :      43380. kBytes
   grid      :     146764. kBytes
   one-center:        248. kBytes
   wavefun   :     743721. kBytes
 
 For storing wavefunctions  707.54 MBYTES are necessary
 For predicting wavefunctions   54.33 MBYTES are necessary
 Broyden mixing: mesh for mixing (old mesh)
   NGX = 35   NGY = 35   NGZ = 35
  (NGX  =140   NGY  =140   NGZ  =140)
  gives a total of  42875 points

 initial charge density was supplied:
 charge density of overlapping atoms calculated
 number of electron     256.0000000 magnetization 
 keeping initial charge density in first step


--------------------------------------------------------------------------------------------------------


 Maximum index for augmentation-charges       440157 (set IRDMAX)


--------------------------------------------------------------------------------------------------------


 First call to EWALD:  gamma=   0.284
 Maximum number of real-space cells 3x 3x 3
 Maximum number of reciprocal cells 4x 4x 4

    FEWALD:  cpu time    0.00: real time    0.00


----------------------------------------- Iteration    1(   1)  ---------------------------------------


    POTLOK:  cpu time    3.30: real time    3.30
    SETDIJ:  cpu time    5.03: real time    5.03
     EDDAV:  cpu time 1520.47: real time 1520.62
       DOS:  cpu time    0.03: real time    0.03
    --------------------------------------------
      LOOP:  cpu time 1528.83: real time 1528.98

 eigenvalue-minimisations  : 14702
 total energy-change (2. order) : 0.3477200E+04  (-0.1517321E+05)
 number of electron     256.0000000 magnetization 
 augmentation part      256.0000000 magnetization 

 Free energy of the ion-electron system (eV)
  ---------------------------------------------------
  alpha Z        PSCENC =      2154.88740723
  Ewald energy   TEWEN  =    -34431.08980821
  -1/2 Hartree   DENC   =     -8948.42295661
  -exchange  EXHF       =         0.00000000
  -V(xc)+E(xc)   XCENC  =      1324.50380981
  PAW double counting   =     36127.84510360   -35666.67305960
  entropy T*S    EENTRO =        -0.01950898
  eigenvalues    EBANDS =       971.43587685
  atomic energy  EATOM  =     41944.73316905
  ---------------------------------------------------
  free energy    TOTEN  =      3477.20003313 eV

  energy without entropy =     3477.21954211  energy(sigma->0) =     3477.20978762


--------------------------------------------------------------------------------------------------------




----------------------------------------- Iteration    1(   2)  ---------------------------------------


     EDDAV:  cpu time 1488.53: real time 1488.68
       DOS:  cpu time    0.04: real time    0.04
    --------------------------------------------
      LOOP:  cpu time 1488.57: real time 1488.72

 eigenvalue-minimisations  : 14398
 total energy-change (2. order) :-0.3359339E+04  (-0.3261677E+04)
 number of electron     256.0000000 magnetization 
 augmentation part      256.0000000 magnetization 

 Free energy of the ion-electron system (eV)
  ---------------------------------------------------
  alpha Z        PSCENC =      2154.88740723
  Ewald energy   TEWEN  =    -34431.08980821
  -1/2 Hartree   DENC   =     -8948.42295661
  -exchange  EXHF       =         0.00000000
  -V(xc)+E(xc)   XCENC  =      1324.50380981
  PAW double counting   =     36127.84510360   -35666.67305960
  entropy T*S    EENTRO =        -0.04164347
  eigenvalues    EBANDS =     -2387.88117627
  atomic energy  EATOM  =     41944.73316905
  ---------------------------------------------------
  free energy    TOTEN  =       117.86084552 eV

  energy without entropy =      117.90248900  energy(sigma->0) =      117.88166726


--------------------------------------------------------------------------------------------------------




----------------------------------------- Iteration    1(   3)  ---------------------------------------


     EDDAV:  cpu time 1522.11: real time 1522.28
       DOS:  cpu time    0.04: real time    0.04
    --------------------------------------------
      LOOP:  cpu time 1522.15: real time 1522.33

 eigenvalue-minimisations  : 15279
 total energy-change (2. order) :-0.1995777E+03  (-0.1807326E+03)
 number of electron     256.0000000 magnetization 
 augmentation part      256.0000000 magnetization 

 Free energy of the ion-electron system (eV)
  ---------------------------------------------------
  alpha Z        PSCENC =      2154.88740723
  Ewald energy   TEWEN  =    -34431.08980821
  -1/2 Hartree   DENC   =     -8948.42295661
  -exchange  EXHF       =         0.00000000
  -V(xc)+E(xc)   XCENC  =      1324.50380981
  PAW double counting   =     36127.84510360   -35666.67305960
  entropy T*S    EENTRO =        -0.21007501
  eigenvalues    EBANDS =     -2587.29043603
  atomic energy  EATOM  =     41944.73316905
  ---------------------------------------------------
  free energy    TOTEN  =       -81.71684577 eV

  energy without entropy =      -81.50677076  energy(sigma->0) =      -81.61180827


--------------------------------------------------------------------------------------------------------




----------------------------------------- Iteration    1(   4)  ---------------------------------------


     EDDAV:  cpu time 1501.34: real time 1501.49
       DOS:  cpu time    0.04: real time    0.04
    --------------------------------------------
      LOOP:  cpu time 1501.38: real time 1501.54

 eigenvalue-minimisations  : 15388
 total energy-change (2. order) :-0.5773081E+01  (-0.5708998E+01)
 number of electron     256.0000000 magnetization 
 augmentation part      256.0000000 magnetization 

 Free energy of the ion-electron system (eV)
  ---------------------------------------------------
  alpha Z        PSCENC =      2154.88740723
  Ewald energy   TEWEN  =    -34431.08980821
  -1/2 Hartree   DENC   =     -8948.42295661
  -exchange  EXHF       =         0.00000000
  -V(xc)+E(xc)   XCENC  =      1324.50380981
  PAW double counting   =     36127.84510360   -35666.67305960
  entropy T*S    EENTRO =        -0.21458904
  eigenvalues    EBANDS =     -2593.05900334
  atomic energy  EATOM  =     41944.73316905
  ---------------------------------------------------
  free energy    TOTEN  =       -87.48992711 eV

  energy without entropy =      -87.27533807  energy(sigma->0) =      -87.38263259


--------------------------------------------------------------------------------------------------------




----------------------------------------- Iteration    1(   5)  ---------------------------------------


     EDDAV:  cpu time 1482.18: real time 1482.32
       DOS:  cpu time    0.04: real time    0.04
    CHARGE:  cpu time  191.53: real time  191.55
    MIXING:  cpu time    0.06: real time    0.06
    --------------------------------------------
      LOOP:  cpu time 1673.81: real time 1673.98

 eigenvalue-minimisations  : 15172
 total energy-change (2. order) :-0.6111778E-01  (-0.6110232E-01)
 number of electron     256.0000007 magnetization 
 augmentation part      119.5301635 magnetization 

 Broyden mixing:
  rms(total) = 0.19459E+01    rms(broyden)= 0.19458E+01
  rms(prec ) = 0.23448E+01
  weight for this iteration     100.00

 Free energy of the ion-electron system (eV)
  ---------------------------------------------------
  alpha Z        PSCENC =      2154.88740723
  Ewald energy   TEWEN  =    -34431.08980821
  -1/2 Hartree   DENC   =     -8948.42295661
  -exchange  EXHF       =         0.00000000
  -V(xc)+E(xc)   XCENC  =      1324.50380981
  PAW double counting   =     36127.84510360   -35666.67305960
  entropy T*S    EENTRO =        -0.21464522
  eigenvalues    EBANDS =     -2593.12006493
  atomic energy  EATOM  =     41944.73316905
  ---------------------------------------------------
  free energy    TOTEN  =       -87.55104489 eV

  energy without entropy =      -87.33639967  energy(sigma->0) =      -87.44372228


--------------------------------------------------------------------------------------------------------




----------------------------------------- Iteration    1(   6)  ---------------------------------------


    POTLOK:  cpu time    3.24: real time    3.24
    SETDIJ:  cpu time    4.58: real time    4.58
     EDDAV:  cpu time 1481.65: real time 1481.79
       DOS:  cpu time    0.04: real time    0.04
    CHARGE:  cpu time  192.28: real time  192.30
    MIXING:  cpu time    0.06: real time    0.06
    --------------------------------------------
      LOOP:  cpu time 1681.86: real time 1683.44

 eigenvalue-minimisations  : 15161
 total energy-change (2. order) : 0.4110927E+01  (-0.1621523E+01)
 number of electron     256.0000007 magnetization 
 augmentation part      122.8204444 magnetization 

 Broyden mixing:
  rms(total) = 0.39893E+00    rms(broyden)= 0.39890E+00
  rms(prec ) = 0.41975E+00
  weight for this iteration     100.00

 eigenvalues of (default mixing * dielectric matrix)
  average eigenvalue GAMMA=   1.1103
  1.1103

 Free energy of the ion-electron system (eV)
  ---------------------------------------------------
  alpha Z        PSCENC =      2154.88740723
  Ewald energy   TEWEN  =    -34431.08980821
  -1/2 Hartree   DENC   =     -8674.20624804
  -exchange  EXHF       =         0.00000000
  -V(xc)+E(xc)   XCENC  =      1312.54481774
  PAW double counting   =     36979.51295175   -36548.64963962
  entropy T*S    EENTRO =        -0.21081598
  eigenvalues    EBANDS =     -2820.96195211
  atomic energy  EATOM  =     41944.73316905
  ---------------------------------------------------
  free energy    TOTEN  =       -83.44011819 eV

  energy without entropy =      -83.22930221  energy(sigma->0) =      -83.33471020


--------------------------------------------------------------------------------------------------------




----------------------------------------- Iteration    1(   7)  ---------------------------------------


    POTLOK:  cpu time    3.25: real time    3.25
    SETDIJ:  cpu time    4.59: real time    4.59
     EDDAV:  cpu time 1484.51: real time 1484.65
       DOS:  cpu time    0.04: real time    0.04
    CHARGE:  cpu time  192.18: real time  192.20
    MIXING:  cpu time    0.06: real time    0.06
    --------------------------------------------
      LOOP:  cpu time 1684.63: real time 1684.79

 eigenvalue-minimisations  : 15203
 total energy-change (2. order) : 0.4801492E-01  (-0.1313128E-01)
 number of electron     256.0000007 magnetization 
 augmentation part      122.7344327 magnetization 

 Broyden mixing:
  rms(total) = 0.24092E+00    rms(broyden)= 0.24092E+00
  rms(prec ) = 0.25633E+00
  weight for this iteration     100.00

 eigenvalues of (default mixing * dielectric matrix)
  average eigenvalue GAMMA=   1.7318
  0.9728  2.4909

 Free energy of the ion-electron system (eV)
  ---------------------------------------------------
  alpha Z        PSCENC =      2154.88740723
  Ewald energy   TEWEN  =    -34431.08980821
  -1/2 Hartree   DENC   =     -8672.31550611
  -exchange  EXHF       =         0.00000000
  -V(xc)+E(xc)   XCENC  =      1312.44496988
  PAW double counting   =     37503.16272672   -37077.49710936
  entropy T*S    EENTRO =        -0.21036364
  eigenvalues    EBANDS =     -2817.50758882
  atomic energy  EATOM  =     41944.73316905
  ---------------------------------------------------
  free energy    TOTEN  =       -83.39210326 eV

  energy without entropy =      -83.18173963  energy(sigma->0) =      -83.28692144


--------------------------------------------------------------------------------------------------------




----------------------------------------- Iteration    1(   8)  ---------------------------------------


    POTLOK:  cpu time    3.24: real time    3.24
    SETDIJ:  cpu time    4.58: real time    4.58
     EDDAV:  cpu time 1517.60: real time 1517.76
       DOS:  cpu time    0.04: real time    0.04
    CHARGE:  cpu time  192.62: real time  192.64
    MIXING:  cpu time    0.07: real time    0.07
    --------------------------------------------
      LOOP:  cpu time 1718.15: real time 1718.35

 eigenvalue-minimisations  : 15626
 total energy-change (2. order) :-0.3999906E-01  (-0.1383155E-01)
 number of electron     256.0000007 magnetization 
 augmentation part      122.7598075 magnetization 

 Broyden mixing:
  rms(total) = 0.25784E+00    rms(broyden)= 0.25783E+00
  rms(prec ) = 0.57169E+00
  weight for this iteration     100.00

 eigenvalues of (default mixing * dielectric matrix)
  average eigenvalue GAMMA=   1.2153
  2.5268  0.9744  0.1447

 Free energy of the ion-electron system (eV)
  ---------------------------------------------------
  alpha Z        PSCENC =      2154.88740723
  Ewald energy   TEWEN  =    -34431.08980821
  -1/2 Hartree   DENC   =     -8660.39662595
  -exchange  EXHF       =         0.00000000
  -V(xc)+E(xc)   XCENC  =      1311.91316169
  PAW double counting   =     38191.46647725   -37771.90486812
  entropy T*S    EENTRO =        -0.20528650
  eigenvalues    EBANDS =     -2822.83572876
  atomic energy  EATOM  =     41944.73316905
  ---------------------------------------------------
  free energy    TOTEN  =       -83.43210233 eV

  energy without entropy =      -83.22681582  energy(sigma->0) =      -83.32945908


--------------------------------------------------------------------------------------------------------




----------------------------------------- Iteration    1(   9)  ---------------------------------------


    POTLOK:  cpu time    3.24: real time    3.24
    SETDIJ:  cpu time    4.58: real time    4.58
     EDDAV:  cpu time 1522.89: real time 1523.03
       DOS:  cpu time    0.04: real time    0.04
    CHARGE:  cpu time  192.02: real time  192.04
    MIXING:  cpu time    0.07: real time    0.07
    --------------------------------------------
      LOOP:  cpu time 1722.84: real time 1723.01

 eigenvalue-minimisations  : 15824
 total energy-change (2. order) : 0.5846237E-01  (-0.1003061E-01)
 number of electron     256.0000007 magnetization 
 augmentation part      122.7584512 magnetization 

 Broyden mixing:
  rms(total) = 0.11538E-01    rms(broyden)= 0.11425E-01
  rms(prec ) = 0.17674E-01
  weight for this iteration     100.00

 eigenvalues of (default mixing * dielectric matrix)
  average eigenvalue GAMMA=   1.0130
  2.5276  0.9749  0.4066  0.1429

 Free energy of the ion-electron system (eV)
  ---------------------------------------------------
  alpha Z        PSCENC =      2154.88740723
  Ewald energy   TEWEN  =    -34431.08980821
  -1/2 Hartree   DENC   =     -8659.59423157
  -exchange  EXHF       =         0.00000000
  -V(xc)+E(xc)   XCENC  =      1311.87795400
  PAW double counting   =     38243.35333667   -37824.15176610
  entropy T*S    EENTRO =        -0.20937205
  eigenvalues    EBANDS =     -2823.18032898
  atomic energy  EATOM  =     41944.73316905
  ---------------------------------------------------
  free energy    TOTEN  =       -83.37363996 eV

  energy without entropy =      -83.16426791  energy(sigma->0) =      -83.26895393


--------------------------------------------------------------------------------------------------------




----------------------------------------- Iteration    1(  10)  ---------------------------------------


    POTLOK:  cpu time    3.24: real time    3.24
    SETDIJ:  cpu time    4.58: real time    4.58
     EDDAV:  cpu time 1486.46: real time 1486.60
       DOS:  cpu time    0.04: real time    0.04
    CHARGE:  cpu time  192.02: real time  192.03
    MIXING:  cpu time    0.07: real time    0.07
    --------------------------------------------
      LOOP:  cpu time 1686.41: real time 1686.58

 eigenvalue-minimisations  : 15266
 total energy-change (2. order) : 0.1662041E-03  (-0.5190296E-03)
 number of electron     256.0000007 magnetization 
 augmentation part      122.7565528 magnetization 

 Broyden mixing:
  rms(total) = 0.92426E-02    rms(broyden)= 0.92362E-02
  rms(prec ) = 0.14407E-01
  weight for this iteration     100.00

 eigenvalues of (default mixing * dielectric matrix)
  average eigenvalue GAMMA=   0.9997
  2.5262  1.1446  0.9706  0.1421  0.2149

 Free energy of the ion-electron system (eV)
  ---------------------------------------------------
  alpha Z        PSCENC =      2154.88740723
  Ewald energy   TEWEN  =    -34431.08980821
  -1/2 Hartree   DENC   =     -8659.77630779
  -exchange  EXHF       =         0.00000000
  -V(xc)+E(xc)   XCENC  =      1311.88587676
  PAW double counting   =     38246.86103236   -37827.40551888
  entropy T*S    EENTRO =        -0.20937171
  eigenvalues    EBANDS =     -2823.25995257
  atomic energy  EATOM  =     41944.73316905
  ---------------------------------------------------
  free energy    TOTEN  =       -83.37347375 eV

  energy without entropy =      -83.16410205  energy(sigma->0) =      -83.26878790


--------------------------------------------------------------------------------------------------------




----------------------------------------- Iteration    1(  11)  ---------------------------------------


    POTLOK:  cpu time    3.25: real time    3.25
    SETDIJ:  cpu time    4.64: real time    4.64
     EDDAV:  cpu time 1482.11: real time 1482.25
       DOS:  cpu time    0.03: real time    0.04
    CHARGE:  cpu time  191.86: real time  191.89
    MIXING:  cpu time    0.07: real time    0.07
    --------------------------------------------
      LOOP:  cpu time 1681.98: real time 1682.15

 eigenvalue-minimisations  : 15239
 total energy-change (2. order) : 0.5625280E-04  (-0.4213882E-04)
 number of electron     256.0000007 magnetization 
 augmentation part      122.7593654 magnetization 

 Broyden mixing:
  rms(total) = 0.47212E-02    rms(broyden)= 0.47187E-02
  rms(prec ) = 0.70031E-02
  weight for this iteration     100.00

 eigenvalues of (default mixing * dielectric matrix)
  average eigenvalue GAMMA=   0.9468
  2.5251  1.3385  0.9705  0.4951  0.1424  0.2091

 Free energy of the ion-electron system (eV)
  ---------------------------------------------------
  alpha Z        PSCENC =      2154.88740723
  Ewald energy   TEWEN  =    -34431.08980821
  -1/2 Hartree   DENC   =     -8660.14895653
  -exchange  EXHF       =         0.00000000
  -V(xc)+E(xc)   XCENC  =      1311.90223603
  PAW double counting   =     38254.05331660   -37834.04968822
  entropy T*S    EENTRO =        -0.20935568
  eigenvalues    EBANDS =     -2823.45173776
  atomic energy  EATOM  =     41944.73316905
  ---------------------------------------------------
  free energy    TOTEN  =       -83.37341750 eV

  energy without entropy =      -83.16406182  energy(sigma->0) =      -83.26873966


--------------------------------------------------------------------------------------------------------




----------------------------------------- Iteration    1(  12)  ---------------------------------------


    POTLOK:  cpu time    3.24: real time    3.24
    SETDIJ:  cpu time    4.59: real time    4.59
     EDDAV:  cpu time 1499.46: real time 1499.60
       DOS:  cpu time    0.04: real time    0.04
    CHARGE:  cpu time  191.91: real time  191.93
    MIXING:  cpu time    0.07: real time    0.07
    --------------------------------------------
      LOOP:  cpu time 1699.30: real time 1699.47

 eigenvalue-minimisations  : 15379
 total energy-change (2. order) : 0.1020704E-04  (-0.9468455E-05)
 number of electron     256.0000007 magnetization 
 augmentation part      122.7600393 magnetization 

 Broyden mixing:
  rms(total) = 0.41409E-02    rms(broyden)= 0.41397E-02
  rms(prec ) = 0.72134E-02
  weight for this iteration     100.00

 eigenvalues of (default mixing * dielectric matrix)
  average eigenvalue GAMMA=   0.9154
  2.5246  1.4705  0.9588  0.8560  0.1426  0.2619  0.1937

 Free energy of the ion-electron system (eV)
  ---------------------------------------------------
  alpha Z        PSCENC =      2154.88740723
  Ewald energy   TEWEN  =    -34431.08980821
  -1/2 Hartree   DENC   =     -8660.35682318
  -exchange  EXHF       =         0.00000000
  -V(xc)+E(xc)   XCENC  =      1311.91139395
  PAW double counting   =     38257.39061425   -37837.15640114
  entropy T*S    EENTRO =        -0.20935084
  eigenvalues    EBANDS =     -2823.48360839
  atomic energy  EATOM  =     41944.73316905
  ---------------------------------------------------
  free energy    TOTEN  =       -83.37340729 eV

  energy without entropy =      -83.16405645  energy(sigma->0) =      -83.26873187


--------------------------------------------------------------------------------------------------------




----------------------------------------- Iteration    1(  13)  ---------------------------------------


    POTLOK:  cpu time    3.24: real time    3.24
    SETDIJ:  cpu time    4.56: real time    4.56
     EDDAV:  cpu time 1493.56: real time 1493.71
       DOS:  cpu time    0.03: real time    0.04
    CHARGE:  cpu time  191.85: real time  191.87
    MIXING:  cpu time    0.08: real time    0.08
    --------------------------------------------
      LOOP:  cpu time 1693.32: real time 1693.50

 eigenvalue-minimisations  : 15408
 total energy-change (2. order) : 0.6857510E-05  (-0.6481651E-05)
 number of electron     256.0000007 magnetization 
 augmentation part      122.7601795 magnetization 

 Broyden mixing:
  rms(total) = 0.40158E-02    rms(broyden)= 0.40147E-02
  rms(prec ) = 0.77203E-02
  weight for this iteration     100.00

 eigenvalues of (default mixing * dielectric matrix)
  average eigenvalue GAMMA=   0.8860
  2.5252  1.6297  1.0718  0.9926  0.3682  0.2011  0.1422  0.1571

 Free energy of the ion-electron system (eV)
  ---------------------------------------------------
  alpha Z        PSCENC =      2154.88740723
  Ewald energy   TEWEN  =    -34431.08980821
  -1/2 Hartree   DENC   =     -8660.59720690
  -exchange  EXHF       =         0.00000000
  -V(xc)+E(xc)   XCENC  =      1311.92198592
  PAW double counting   =     38260.95042343   -37840.48395669
  entropy T*S    EENTRO =        -0.20934824
  eigenvalues    EBANDS =     -2823.48606602
  atomic energy  EATOM  =     41944.73316905
  ---------------------------------------------------
  free energy    TOTEN  =       -83.37340044 eV

  energy without entropy =      -83.16405220  energy(sigma->0) =      -83.26872632


--------------------------------------------------------------------------------------------------------




----------------------------------------- Iteration    1(  14)  ---------------------------------------


    POTLOK:  cpu time    3.24: real time    3.24
    SETDIJ:  cpu time    4.58: real time    4.59
     EDDAV:  cpu time 1488.16: real time 1488.31
       DOS:  cpu time    0.04: real time    0.04
    CHARGE:  cpu time  191.93: real time  191.95
    MIXING:  cpu time    0.08: real time    0.08
    --------------------------------------------
      LOOP:  cpu time 1688.03: real time 1688.21

 eigenvalue-minimisations  : 15379
 total energy-change (2. order) : 0.1976186E-04  (-0.4607232E-05)
 number of electron     256.0000007 magnetization 
 augmentation part      122.7600865 magnetization 

 Broyden mixing:
  rms(total) = 0.18843E-02    rms(broyden)= 0.18820E-02
  rms(prec ) = 0.30901E-02
  weight for this iteration     100.00

 eigenvalues of (default mixing * dielectric matrix)
  average eigenvalue GAMMA=   0.9555
  2.5448  2.3276  1.2197  0.9805  0.7672  0.2742  0.2029  0.1427  0.1401

 Free energy of the ion-electron system (eV)
  ---------------------------------------------------
  alpha Z        PSCENC =      2154.88740723
  Ewald energy   TEWEN  =    -34431.08980821
  -1/2 Hartree   DENC   =     -8660.85421072
  -exchange  EXHF       =         0.00000000
  -V(xc)+E(xc)   XCENC  =      1311.93330716
  PAW double counting   =     38264.60825874   -37843.91081564
  entropy T*S    EENTRO =        -0.20934834
  eigenvalues    EBANDS =     -2823.47133995
  atomic energy  EATOM  =     41944.73316905
  ---------------------------------------------------
  free energy    TOTEN  =       -83.37338067 eV

  energy without entropy =      -83.16403234  energy(sigma->0) =      -83.26870651


--------------------------------------------------------------------------------------------------------




----------------------------------------- Iteration    1(  15)  ---------------------------------------


    POTLOK:  cpu time    3.24: real time    3.24
    SETDIJ:  cpu time    4.56: real time    4.56
     EDDAV:  cpu time 1482.36: real time 1482.50
       DOS:  cpu time    0.04: real time    0.04
    CHARGE:  cpu time  194.26: real time  194.27
    MIXING:  cpu time    0.08: real time    0.08
    --------------------------------------------
      LOOP:  cpu time 1684.53: real time 1684.69

 eigenvalue-minimisations  : 15122
 total energy-change (2. order) : 0.1659255E-04  (-0.1091142E-05)
 number of electron     256.0000007 magnetization 
 augmentation part      122.7595825 magnetization 

 Broyden mixing:
  rms(total) = 0.68983E-03    rms(broyden)= 0.68424E-03
  rms(prec ) = 0.10945E-02
  weight for this iteration     100.00

 eigenvalues of (default mixing * dielectric matrix)
  average eigenvalue GAMMA=   0.9014
  2.5480  2.3667  1.2414  0.9792  0.7630  0.3586  0.2712  0.2034  0.1424  0.1401

 Free energy of the ion-electron system (eV)
  ---------------------------------------------------
  alpha Z        PSCENC =      2154.88740723
  Ewald energy   TEWEN  =    -34431.08980821
  -1/2 Hartree   DENC   =     -8661.17422347
  -exchange  EXHF       =         0.00000000
  -V(xc)+E(xc)   XCENC  =      1311.94739760
  PAW double counting   =     38268.93896423   -37847.97622325
  entropy T*S    EENTRO =        -0.20934941
  eigenvalues    EBANDS =     -2823.43069786
  atomic energy  EATOM  =     41944.73316905
  ---------------------------------------------------
  free energy    TOTEN  =       -83.37336408 eV

  energy without entropy =      -83.16401467  energy(sigma->0) =      -83.26868938


--------------------------------------------------------------------------------------------------------




----------------------------------------- Iteration    1(  16)  ---------------------------------------


    POTLOK:  cpu time    3.24: real time    3.24
    SETDIJ:  cpu time    4.60: real time    4.60
     EDDAV:  cpu time 1474.78: real time 1474.91
       DOS:  cpu time    0.04: real time    0.04
    CHARGE:  cpu time  188.92: real time  188.94
    MIXING:  cpu time    0.08: real time    0.08
    --------------------------------------------
      LOOP:  cpu time 1671.66: real time 1671.82

 eigenvalue-minimisations  : 15243
 total energy-change (2. order) : 0.1194137E-05  (-0.3221783E-06)
 number of electron     256.0000007 magnetization 
 augmentation part      122.7595796 magnetization 

 Broyden mixing:
  rms(total) = 0.39484E-03    rms(broyden)= 0.38511E-03
  rms(prec ) = 0.60860E-03
  weight for this iteration     100.00

 eigenvalues of (default mixing * dielectric matrix)
  average eigenvalue GAMMA=   0.9154
  2.5609  2.4476  1.4195  0.9668  0.8449  0.8449  0.2741  0.1425  0.1400  0.2030
  0.2251

 Free energy of the ion-electron system (eV)
  ---------------------------------------------------
  alpha Z        PSCENC =      2154.88740723
  Ewald energy   TEWEN  =    -34431.08980821
  -1/2 Hartree   DENC   =     -8661.18674441
  -exchange  EXHF       =         0.00000000
  -V(xc)+E(xc)   XCENC  =      1311.94795836
  PAW double counting   =     38269.10750294   -37848.13269095
  entropy T*S    EENTRO =        -0.20934982
  eigenvalues    EBANDS =     -2823.43080708
  atomic energy  EATOM  =     41944.73316905
  ---------------------------------------------------
  free energy    TOTEN  =       -83.37336289 eV

  energy without entropy =      -83.16401307  energy(sigma->0) =      -83.26868798


--------------------------------------------------------------------------------------------------------




----------------------------------------- Iteration    1(  17)  ---------------------------------------


    POTLOK:  cpu time    3.23: real time    3.23
    SETDIJ:  cpu time    4.47: real time    4.47
     EDDAV:  cpu time 1452.37: real time 1452.50
       DOS:  cpu time    0.03: real time    0.03
    CHARGE:  cpu time  184.58: real time  184.60
    MIXING:  cpu time    0.08: real time    0.08
    --------------------------------------------
      LOOP:  cpu time 1644.77: real time 1644.92

 eigenvalue-minimisations  : 15218
 total energy-change (2. order) : 0.1154331E-05  (-0.1185240E-06)
 number of electron     256.0000007 magnetization 
 augmentation part      122.7596399 magnetization 

 Broyden mixing:
  rms(total) = 0.39472E-03    rms(broyden)= 0.38502E-03
  rms(prec ) = 0.62616E-03
  weight for this iteration     100.00

 eigenvalues of (default mixing * dielectric matrix)
  average eigenvalue GAMMA=   0.8893
  2.5883  2.4897  1.5745  0.9605  0.9605  0.8451  0.2946  0.2704  0.1425  0.1401
  0.2040  0.2014

 Free energy of the ion-electron system (eV)
  ---------------------------------------------------
  alpha Z        PSCENC =      2154.88740723
  Ewald energy   TEWEN  =    -34431.08980821
  -1/2 Hartree   DENC   =     -8661.19668973
  -exchange  EXHF       =         0.00000000
  -V(xc)+E(xc)   XCENC  =      1311.94842565
  PAW double counting   =     38269.25508861   -37848.26698840
  entropy T*S    EENTRO =        -0.20935023
  eigenvalues    EBANDS =     -2823.43461571
  atomic energy  EATOM  =     41944.73316905
  ---------------------------------------------------
  free energy    TOTEN  =       -83.37336173 eV

  energy without entropy =      -83.16401151  energy(sigma->0) =      -83.26868662


--------------------------------------------------------------------------------------------------------




----------------------------------------- Iteration    1(  18)  ---------------------------------------


    POTLOK:  cpu time    3.20: real time    3.20
    SETDIJ:  cpu time    4.15: real time    4.15
     EDDAV:  cpu time 1415.96: real time 1416.09
       DOS:  cpu time    0.03: real time    0.05
    CHARGE:  cpu time  165.58: real time  165.59
    MIXING:  cpu time    0.08: real time    0.08
    --------------------------------------------
      LOOP:  cpu time 1589.00: real time 1589.17

 eigenvalue-minimisations  : 15267
 total energy-change (2. order) : 0.5906550E-06  (-0.5473515E-07)
 number of electron     256.0000007 magnetization 
 augmentation part      122.7596742 magnetization 

 Broyden mixing:
  rms(total) = 0.10513E-03    rms(broyden)= 0.59213E-04
  rms(prec ) = 0.75509E-04
  weight for this iteration     100.00
  WARNING: grid for Broyden might be to small

 eigenvalues of (default mixing * dielectric matrix)
  average eigenvalue GAMMA=   0.9320
  2.6332  2.4877  1.7028  1.1935  1.0259  1.0259  0.8084  0.2822  0.2709  0.1425
  0.1400  0.2032  0.1998

 Free energy of the ion-electron system (eV)
  ---------------------------------------------------
  alpha Z        PSCENC =      2154.88740723
  Ewald energy   TEWEN  =    -34431.08980821
  -1/2 Hartree   DENC   =     -8661.19932813
  -exchange  EXHF       =         0.00000000
  -V(xc)+E(xc)   XCENC  =      1311.94855787
  PAW double counting   =     38269.29014590   -37848.29758153
  entropy T*S    EENTRO =        -0.20935038
  eigenvalues    EBANDS =     -2823.43657294
  atomic energy  EATOM  =     41944.73316905
  ---------------------------------------------------
  free energy    TOTEN  =       -83.37336114 eV

  energy without entropy =      -83.16401076  energy(sigma->0) =      -83.26868595


--------------------------------------------------------------------------------------------------------




----------------------------------------- Iteration    1(  19)  ---------------------------------------


    POTLOK:  cpu time    3.06: real time    3.07
    SETDIJ:  cpu time    3.68: real time    3.69
     EDDAV:  cpu time 1004.62: real time 1004.71
       DOS:  cpu time    0.03: real time    0.03
    CHARGE:  cpu time  166.28: real time  166.29
    MIXING:  cpu time    0.08: real time    0.08
    --------------------------------------------
      LOOP:  cpu time 1177.77: real time 1177.89

 eigenvalue-minimisations  :  9722
 total energy-change (2. order) :-0.2441739E-06  (-0.3596627E-08)
 number of electron     256.0000007 magnetization 
 augmentation part      122.7596807 magnetization 

 Broyden mixing:
  rms(total) = 0.10332E-03    rms(broyden)= 0.55995E-04
  rms(prec ) = 0.86724E-04
  weight for this iteration     100.00
  WARNING: grid for Broyden might be to small

 eigenvalues of (default mixing * dielectric matrix)
  average eigenvalue GAMMA=   0.9101
  2.6374  2.4836  1.8181  1.3369  1.0109  1.0109  0.8064  0.3983  0.2819  0.2714
  0.1425  0.1400  0.2033  0.1998

 Free energy of the ion-electron system (eV)
  ---------------------------------------------------
  alpha Z        PSCENC =      2154.88740723
  Ewald energy   TEWEN  =    -34431.08980821
  -1/2 Hartree   DENC   =     -8661.19516579
  -exchange  EXHF       =         0.00000000
  -V(xc)+E(xc)   XCENC  =      1311.94838794
  PAW double counting   =     38269.19166838   -37848.20307002
  entropy T*S    EENTRO =        -0.20935047
  eigenvalues    EBANDS =     -2823.43659951
  atomic energy  EATOM  =     41944.73316905
  ---------------------------------------------------
  free energy    TOTEN  =       -83.37336139 eV

  energy without entropy =      -83.16401092  energy(sigma->0) =      -83.26868615


--------------------------------------------------------------------------------------------------------




----------------------------------------- Iteration    1(  20)  ---------------------------------------


    POTLOK:  cpu time    3.06: real time    3.06
    SETDIJ:  cpu time    3.66: real time    3.66
     EDDAV:  cpu time  900.39: real time  900.47
       DOS:  cpu time    0.03: real time    0.03
    CHARGE:  cpu time  166.03: real time  166.04
    MIXING:  cpu time    0.08: real time    0.08
    --------------------------------------------
      LOOP:  cpu time 1073.26: real time 1073.41

 eigenvalue-minimisations  :  7973
 total energy-change (2. order) :-0.9572250E-07  (-0.1683644E-08)
 number of electron     256.0000007 magnetization 
 augmentation part      122.7596770 magnetization 

 Broyden mixing:
  rms(total) = 0.95234E-04    rms(broyden)= 0.39106E-04
  rms(prec ) = 0.60024E-04
  weight for this iteration     100.00
  WARNING: grid for Broyden might be to small

 eigenvalues of (default mixing * dielectric matrix)
  average eigenvalue GAMMA=   0.9504
  2.6127  2.5054  2.5054  1.4859  0.9937  0.9937  0.8534  0.8534  0.2826  0.2713
  0.1425  0.1400  0.2033  0.1994  0.2131

 Free energy of the ion-electron system (eV)
  ---------------------------------------------------
  alpha Z        PSCENC =      2154.88740723
  Ewald energy   TEWEN  =    -34431.08980821
  -1/2 Hartree   DENC   =     -8661.19351630
  -exchange  EXHF       =         0.00000000
  -V(xc)+E(xc)   XCENC  =      1311.94831869
  PAW double counting   =     38269.15450301   -37848.16743651
  entropy T*S    EENTRO =        -0.20935048
  eigenvalues    EBANDS =     -2823.43664797
  atomic energy  EATOM  =     41944.73316905
  ---------------------------------------------------
  free energy    TOTEN  =       -83.37336148 eV

  energy without entropy =      -83.16401100  energy(sigma->0) =      -83.26868624


--------------------------------------------------------------------------------------------------------




----------------------------------------- Iteration    1(  21)  ---------------------------------------


    POTLOK:  cpu time    3.07: real time    3.07
    SETDIJ:  cpu time    3.71: real time    3.71
     EDDAV:  cpu time  880.14: real time  880.22
       DOS:  cpu time    0.03: real time    0.03
    CHARGE:  cpu time  164.54: real time  164.55
    MIXING:  cpu time    0.09: real time    0.09
    --------------------------------------------
      LOOP:  cpu time 1051.58: real time 1051.70

 eigenvalue-minimisations  :  7794
 total energy-change (2. order) :-0.2450615E-06  (-0.6718818E-09)
 number of electron     256.0000007 magnetization 
 augmentation part      122.7596766 magnetization 

 Broyden mixing:
  rms(total) = 0.90491E-04    rms(broyden)= 0.25467E-04
  rms(prec ) = 0.41354E-04
  weight for this iteration     100.00
  WARNING: grid for Broyden might be to small

 eigenvalues of (default mixing * dielectric matrix)
  average eigenvalue GAMMA=   0.9240
  2.6304  2.6304  2.5171  1.4916  0.9889  0.9889  0.9084  0.8398  0.3457  0.2826
  0.2709  0.1425  0.1400  0.1997  0.2033  0.2044

 Free energy of the ion-electron system (eV)
  ---------------------------------------------------
  alpha Z        PSCENC =      2154.88740723
  Ewald energy   TEWEN  =    -34431.08980821
  -1/2 Hartree   DENC   =     -8661.18886774
  -exchange  EXHF       =         0.00000000
  -V(xc)+E(xc)   XCENC  =      1311.94812289
  PAW double counting   =     38269.05062483   -37848.06765119
  entropy T*S    EENTRO =        -0.20935051
  eigenvalues    EBANDS =     -2823.43700807
  atomic energy  EATOM  =     41944.73316905
  ---------------------------------------------------
  free energy    TOTEN  =       -83.37336173 eV

  energy without entropy =      -83.16401121  energy(sigma->0) =      -83.26868647


--------------------------------------------------------------------------------------------------------




----------------------------------------- Iteration    1(  22)  ---------------------------------------


    POTLOK:  cpu time    3.07: real time    3.07
    SETDIJ:  cpu time    3.72: real time    3.72
     EDDAV:  cpu time  885.42: real time  885.49
       DOS:  cpu time    0.03: real time    0.03
    CHARGE:  cpu time  166.28: real time  166.29
    MIXING:  cpu time    0.09: real time    0.09
    --------------------------------------------
      LOOP:  cpu time 1058.62: real time 1058.71

 eigenvalue-minimisations  :  7744
 total energy-change (2. order) :-0.4196045E-07  (-0.2653367E-09)
 number of electron     256.0000007 magnetization 
 augmentation part      122.7596777 magnetization 

 Broyden mixing:
  rms(total) = 0.86992E-04    rms(broyden)= 0.52599E-05
  rms(prec ) = 0.77723E-05
  weight for this iteration     100.00
  WARNING: grid for Broyden might be to small

 eigenvalues of (default mixing * dielectric matrix)
  average eigenvalue GAMMA=   0.9454
  2.7636  2.7118  2.4725  1.4419  1.1769  0.9916  0.9916  0.9711  0.8274  0.1425
  0.1400  0.2849  0.2711  0.2787  0.1992  0.2032  0.2032

 Free energy of the ion-electron system (eV)
  ---------------------------------------------------
  alpha Z        PSCENC =      2154.88740723
  Ewald energy   TEWEN  =    -34431.08980821
  -1/2 Hartree   DENC   =     -8661.18787498
  -exchange  EXHF       =         0.00000000
  -V(xc)+E(xc)   XCENC  =      1311.94808119
  PAW double counting   =     38269.02867741   -37848.04647527
  entropy T*S    EENTRO =        -0.20935052
  eigenvalues    EBANDS =     -2823.43718767
  atomic energy  EATOM  =     41944.73316905
  ---------------------------------------------------
  free energy    TOTEN  =       -83.37336177 eV

  energy without entropy =      -83.16401125  energy(sigma->0) =      -83.26868651


--------------------------------------------------------------------------------------------------------




----------------------------------------- Iteration    1(  23)  ---------------------------------------


    POTLOK:  cpu time    3.05: real time    3.05
    SETDIJ:  cpu time    3.69: real time    3.69
     EDDAV:  cpu time  883.47: real time  883.54
       DOS:  cpu time    0.03: real time    0.03
    CHARGE:  cpu time  166.23: real time  166.24
    MIXING:  cpu time    0.09: real time    0.09
    --------------------------------------------
      LOOP:  cpu time 1056.57: real time 1058.55

 eigenvalue-minimisations  :  7704
 total energy-change (2. order) : 0.1533044E-07  (-0.6172047E-10)
 number of electron     256.0000007 magnetization 
 augmentation part      122.7596826 magnetization 

 Broyden mixing:
  rms(total) = 0.86874E-04    rms(broyden)= 0.26630E-05
  rms(prec ) = 0.36572E-05
  weight for this iteration     100.00
  WARNING: grid for Broyden might be to small

 eigenvalues of (default mixing * dielectric matrix)
  average eigenvalue GAMMA=   0.9349
  2.8177  2.6733  2.4672  1.3842  1.3842  1.0083  0.9671  0.9671  0.8286  0.6102
  0.1425  0.1400  0.2838  0.2709  0.2777  0.1992  0.2036  0.2030

 Free energy of the ion-electron system (eV)
  ---------------------------------------------------
  alpha Z        PSCENC =      2154.88740723
  Ewald energy   TEWEN  =    -34431.08980821
  -1/2 Hartree   DENC   =     -8661.18761909
  -exchange  EXHF       =         0.00000000
  -V(xc)+E(xc)   XCENC  =      1311.94807114
  PAW double counting   =     38269.02268939   -37848.04041342
  entropy T*S    EENTRO =        -0.20935051
  eigenvalues    EBANDS =     -2823.43750735
  atomic energy  EATOM  =     41944.73316905
  ---------------------------------------------------
  free energy    TOTEN  =       -83.37336175 eV

  energy without entropy =      -83.16401125  energy(sigma->0) =      -83.26868650


--------------------------------------------------------------------------------------------------------




----------------------------------------- Iteration    1(  24)  ---------------------------------------


    POTLOK:  cpu time    3.06: real time    3.06
    SETDIJ:  cpu time    3.71: real time    3.71
     EDDAV:  cpu time  873.65: real time  873.73
       DOS:  cpu time    0.03: real time    0.03
    --------------------------------------------
      LOOP:  cpu time  880.46: real time  880.56

 eigenvalue-minimisations  :  7664
 total energy-change (2. order) : 0.1055014E-08  (-0.1716008E-10)
 number of electron     256.0000007 magnetization 
 augmentation part      122.7596826 magnetization 

 Free energy of the ion-electron system (eV)
  ---------------------------------------------------
  alpha Z        PSCENC =      2154.88740723
  Ewald energy   TEWEN  =    -34431.08980821
  -1/2 Hartree   DENC   =     -8661.18773977
  -exchange  EXHF       =         0.00000000
  -V(xc)+E(xc)   XCENC  =      1311.94807648
  PAW double counting   =     38269.02444700   -37848.04206788
  entropy T*S    EENTRO =        -0.20935050
  eigenvalues    EBANDS =     -2823.43749515
  atomic energy  EATOM  =     41944.73316905
  ---------------------------------------------------
  free energy    TOTEN  =       -83.37336175 eV

  energy without entropy =      -83.16401125  energy(sigma->0) =      -83.26868650


--------------------------------------------------------------------------------------------------------




 average (electrostatic) potential at core
  the test charge radii are     1.0504
  (the norm of the test charge is              1.0000)
       1 -74.7028       2 -74.7038       3 -74.7027       4 -74.7016       5 -74.7047
       6 -74.7027       7 -74.7008       8 -74.7027       9 -74.7047      10 -74.7027
      11 -74.7008      12 -74.7027      13 -74.7027      14 -74.7028      15 -74.7027
      16 -74.7026
 
 
 
 E-fermi :   9.1920     XC(G=0): -13.1986     alpha+bet :-16.1055


 k-point   1 :       0.0957    0.9149    0.8989
  band No.  band energies     occupation 
      1     -40.7586      2.00000
      2     -40.7580      2.00000
      3     -40.7567      2.00000
      4     -40.7445      2.00000
      5     -40.7377      2.00000
      6     -40.7364      2.00000
      7     -40.7356      2.00000
      8     -40.6986      2.00000
      9     -40.6981      2.00000
     10     -40.6980      2.00000
     11     -40.6943      2.00000
     12     -40.6914      2.00000
     13     -40.6762      2.00000
     14     -40.5957      2.00000
     15     -40.5933      2.00000
     16     -40.5844      2.00000
     17     -40.5800      2.00000
     18     -40.5794      2.00000
     19     -40.5519      2.00000
     20     -40.5489      2.00000
     21     -40.5423      2.00000
     22     -40.5393      2.00000
     23     -40.5350      2.00000
     24     -40.5319      2.00000
     25     -40.5309      2.00000
     26     -40.5305      2.00000
     27     -40.5046      2.00000
     28     -40.5041      2.00000
     29     -40.5034      2.00000
     30     -40.4906      2.00000
     31     -40.4870      2.00000
     32     -40.4869      2.00000
     33     -40.4851      2.00000
     34     -40.4745      2.00000
     35     -40.4697      2.00000
     36     -40.4664      2.00000
     37     -40.4579      2.00000
     38     -40.4559      2.00000
     39     -40.4550      2.00000
     40     -40.4547      2.00000
     41     -40.4492      2.00000
     42     -40.4468      2.00000
     43     -40.4396      2.00000
     44     -40.4324      2.00000
     45     -40.4268      2.00000
     46     -40.4219      2.00000
     47     -40.4034      2.00000
     48     -40.3994      2.00000
     49       2.5216      2.00000
     50       4.0904      2.00000
     51       4.1531      2.00000
     52       4.1649      2.00000
     53       4.1781      2.00000
     54       4.1782      2.00000
     55       4.2143      2.00000
     56       4.2620      2.00000
     57       4.2779      2.00000
     58       4.2987      2.00000
     59       4.4243      2.00000
     60       4.4444      2.00000
     61       4.4515      2.00000
     62       4.7505      2.00000
     63       4.9315      2.00000
     64       4.9351      2.00000
     65       4.9641      2.00000
     66       4.9653      2.00000
     67       4.9763      2.00000
     68       5.4245      2.00000
     69       5.4901      2.00000
     70       5.5007      2.00000
     71       5.6057      2.00000
     72       5.6082      2.00000
     73       5.6625      2.00000
     74       6.0463      2.00000
     75       6.1706      2.00000
     76       6.2645      2.00000
     77       6.2937      2.00000
     78       6.3152      2.00000
     79       6.3668      2.00000
     80       6.4781      2.00000
     81       6.4966      2.00000
     82       6.5000      2.00000
     83       6.5204      2.00000
     84       6.5655      2.00000
     85       6.5740      2.00000
     86       6.5872      2.00000
     87       6.5954      2.00000
     88       6.6059      2.00000
     89       6.6492      2.00000
     90       6.6814      2.00000
     91       6.7579      2.00000
     92       6.7610      2.00000
     93       6.7817      2.00000
     94       6.8666      2.00000
     95       6.9116      2.00000
     96       6.9421      2.00000
     97       7.6344      2.00000
     98       7.6910      2.00000
     99       7.7419      2.00000
    100       7.7701      2.00000
    101       7.8167      2.00000
    102       7.8623      2.00000
    103       7.8786      2.00000
    104       7.9321      2.00000
    105       8.0172      2.00000
    106       8.0602      2.00000
    107       8.1621      2.00000
    108       8.1722      2.00000
    109       8.1870      2.00000
    110       8.4581      2.00000
    111       8.7337      2.00000
    112       8.7621      2.00000
    113       8.7664      2.00000
    114       8.7975      2.00000
    115       8.9154      1.99991
    116       8.9430      1.99957
    117       8.9480      1.99944
    118       8.9589      1.99902
    119       8.9602      1.99896
    120       8.9622      1.99885
    121       8.9686      1.99842
    122       8.9784      1.99748
    123       9.1165      1.71462
    124       9.1254      1.65371
    125       9.1282      1.63308
    126       9.1521      1.42786
    127       9.1623      1.32594
    128       9.1683      1.26267
    129       9.3497      0.02578
    130       9.3896      0.00520
    131       9.3929      0.00449
    132       9.4827      0.00004
    133      10.3272      0.00000
    134      10.9538      0.00000
    135      11.1848      0.00000
    136      11.5062      0.00000
    137      11.6709      0.00000
    138      12.0240      0.00000
    139      12.2355      0.00000
    140      12.9484      0.00000
    141      13.1642      0.00000
    142      14.3845      0.00000
    143      14.6977      0.00000
    144      15.1194      0.00000
    145      16.3086      0.00000
    146      16.5477      0.00000
    147      16.5764      0.00000
    148      16.7624      0.00000
    149      17.2696      0.00000
    150      17.5793      0.00000
    151      17.7604      0.00000
    152      19.5325      0.00000
    153      19.8556      0.00000

 k-point   2 :       0.1170    0.3404    0.6543
  band No.  band energies     occupation 
      1     -40.6978      2.00000
      2     -40.6950      2.00000
      3     -40.6900      2.00000
      4     -40.6878      2.00000
      5     -40.6867      2.00000
      6     -40.6845      2.00000
      7     -40.6836      2.00000
      8     -40.6784      2.00000
      9     -40.6747      2.00000
     10     -40.6742      2.00000
     11     -40.6548      2.00000
     12     -40.6541      2.00000
     13     -40.6426      2.00000
     14     -40.6205      2.00000
     15     -40.6108      2.00000
     16     -40.6048      2.00000
     17     -40.6019      2.00000
     18     -40.5942      2.00000
     19     -40.5918      2.00000
     20     -40.5852      2.00000
     21     -40.5818      2.00000
     22     -40.5590      2.00000
     23     -40.5579      2.00000
     24     -40.5466      2.00000
     25     -40.5313      2.00000
     26     -40.5201      2.00000
     27     -40.5148      2.00000
     28     -40.5113      2.00000
     29     -40.5081      2.00000
     30     -40.5075      2.00000
     31     -40.5049      2.00000
     32     -40.4954      2.00000
     33     -40.4879      2.00000
     34     -40.4871      2.00000
     35     -40.4856      2.00000
     36     -40.4817      2.00000
     37     -40.4780      2.00000
     38     -40.4776      2.00000
     39     -40.4773      2.00000
     40     -40.4751      2.00000
     41     -40.4697      2.00000
     42     -40.4597      2.00000
     43     -40.4504      2.00000
     44     -40.4484      2.00000
     45     -40.4386      2.00000
     46     -40.4343      2.00000
     47     -40.4295      2.00000
     48     -40.4236      2.00000
     49       3.9798      2.00000
     50       4.2687      2.00000
     51       4.4320      2.00000
     52       4.6552      2.00000
     53       4.7474      2.00000
     54       4.7758      2.00000
     55       4.9204      2.00000
     56       4.9383      2.00000
     57       5.0134      2.00000
     58       5.0453      2.00000
     59       5.0480      2.00000
     60       5.0740      2.00000
     61       5.0884      2.00000
     62       5.1481      2.00000
     63       5.1524      2.00000
     64       5.1918      2.00000
     65       5.2012      2.00000
     66       5.3310      2.00000
     67       5.3994      2.00000
     68       5.4032      2.00000
     69       5.5012      2.00000
     70       5.5414      2.00000
     71       5.6258      2.00000
     72       5.6326      2.00000
     73       5.7354      2.00000
     74       5.7775      2.00000
     75       5.7833      2.00000
     76       5.7849      2.00000
     77       5.8377      2.00000
     78       5.9914      2.00000
     79       6.0520      2.00000
     80       6.1817      2.00000
     81       6.2499      2.00000
     82       6.2676      2.00000
     83       6.3534      2.00000
     84       6.3762      2.00000
     85       6.4126      2.00000
     86       6.5206      2.00000
     87       6.5483      2.00000
     88       6.5797      2.00000
     89       6.6091      2.00000
     90       6.6184      2.00000
     91       6.7009      2.00000
     92       6.7375      2.00000
     93       6.7407      2.00000
     94       6.7994      2.00000
     95       6.8541      2.00000
     96       7.0641      2.00000
     97       7.0688      2.00000
     98       7.1030      2.00000
     99       7.1364      2.00000
    100       7.1531      2.00000
    101       7.3882      2.00000
    102       7.4694      2.00000
    103       7.5411      2.00000
    104       7.6348      2.00000
    105       7.7145      2.00000
    106       7.7188      2.00000
    107       7.7298      2.00000
    108       7.7781      2.00000
    109       7.8629      2.00000
    110       7.8648      2.00000
    111       7.9162      2.00000
    112       8.0213      2.00000
    113       8.0530      2.00000
    114       8.0610      2.00000
    115       8.0787      2.00000
    116       8.1609      2.00000
    117       8.4703      2.00000
    118       8.5206      2.00000
    119       8.6140      2.00000
    120       8.6468      2.00000
    121       8.7311      2.00000
    122       8.7486      2.00000
    123       8.7656      2.00000
    124       8.7749      2.00000
    125       8.8115      2.00000
    126       8.9056      1.99995
    127       9.0720      1.91033
    128       9.0997      1.80803
    129       9.1040      1.78682
    130       9.1816      1.11667
    131       9.1833      1.09766
    132       9.5758      0.00000
    133       9.6960      0.00000
    134       9.7367      0.00000
    135      10.6141      0.00000
    136      11.0729      0.00000
    137      12.3771      0.00000
    138      12.6246      0.00000
    139      13.8165      0.00000
    140      14.5892      0.00000
    141      14.6467      0.00000
    142      14.8507      0.00000
    143      15.7239      0.00000
    144      16.3931      0.00000
    145      16.7633      0.00000
    146      17.1265      0.00000
    147      17.2989      0.00000
    148      17.5841      0.00000
    149      17.8487      0.00000
    150      18.7502      0.00000
    151      19.1002      0.00000
    152      19.7387      0.00000
    153      20.3076      0.00000

[...]
    118       8.8658      2.00000
    119       8.8729      1.99999
    120       8.9389      1.99966
    121       8.9618      1.99887
    122       8.9674      1.99851
    123       8.9731      1.99804
    124       8.9735      1.99800
    125       8.9923      1.99527
    126       9.0617      1.93455
    127       9.0839      1.87378
    128       9.0858      1.86673
    129       9.1234      1.66821
    130       9.2399      0.49790
    131       9.2816      0.20503
    132       9.7354      0.00000
    133       9.7963      0.00000
    134      10.0831      0.00000
    135      10.3981      0.00000
    136      11.8002      0.00000
    137      12.4197      0.00000
    138      12.5000      0.00000
    139      12.7156      0.00000
    140      13.2386      0.00000
    141      14.0956      0.00000
    142      14.5520      0.00000
    143      15.2481      0.00000
    144      15.2538      0.00000
    145      16.3271      0.00000
    146      16.4013      0.00000
    147      17.1187      0.00000
    148      17.4932      0.00000
    149      18.2857      0.00000
    150      18.4658      0.00000
    151      18.7614      0.00000
    152      19.1448      0.00000
    153      19.5698      0.00000


--------------------------------------------------------------------------------------------------------


 soft charge-density along one line, spin component           1
         0         1         2         3         4         5         6         7         8         9
x   133.2403    0.0000   -0.0001   -0.0397   -0.0002   -0.0321   -0.0001   -0.0095   -3.3690    0.0055
x     0.0002    0.0089    0.0001    0.0060    0.0001    0.0025   -0.1916    0.0006    0.0000    0.0001
x    -0.0000   -0.0000   -0.0000   -0.0000    0.0015   -0.0000   -0.0000   -0.0000   -0.0000   -0.0000
x     0.0000    0.0000   -0.0000    0.0000   -0.0000   -0.0000   -0.0000   -0.0000    0.0000    0.0000
x    -0.0000    0.0000   -0.0000   -0.0000    0.0000    0.0000   -0.0000   -0.0000   -0.0000   -0.0000
x    -0.0000    0.0000    0.0000   -0.0000    0.0000   -0.0000    0.0000   -0.0000    0.0000    0.0000
x     0.0000    0.0000    0.0000    0.0000    0.0000    0.0000   -0.0000   -0.0000    0.0000   -0.0000
x     0.0000    0.0000
y   133.2403    0.0000   -0.0000   -0.0001    0.0000   -0.0006   -0.0000   -0.0005   -3.3668    0.0000
y     0.0000   -0.0001    0.0000    0.0000    0.0000    0.0001   -0.1909   -0.0000    0.0000   -0.0000
y     0.0000   -0.0000   -0.0000   -0.0000    0.0015    0.0000   -0.0000   -0.0000    0.0000    0.0000
y     0.0000    0.0000   -0.0000   -0.0000   -0.0000    0.0000   -0.0000   -0.0000    0.0000    0.0000
y    -0.0000   -0.0000   -0.0000   -0.0000   -0.0000   -0.0000    0.0000    0.0000    0.0000   -0.0000
y    -0.0000   -0.0000   -0.0000    0.0000   -0.0000   -0.0000    0.0000   -0.0000    0.0000   -0.0000
y    -0.0000    0.0000   -0.0000   -0.0000   -0.0000    0.0000    0.0000    0.0000   -0.0000    0.0000
y     0.0000    0.0000
z   133.2403    0.0000   -0.0000   -0.0001    0.0000   -0.0006   -0.0000   -0.0005   -3.3671    0.0000
z     0.0000   -0.0002    0.0000    0.0000    0.0000    0.0001   -0.1913    0.0000    0.0000   -0.0000
z     0.0000   -0.0000   -0.0000   -0.0000    0.0015    0.0000   -0.0000    0.0000    0.0000    0.0000
z     0.0000    0.0000   -0.0000   -0.0000   -0.0000   -0.0000   -0.0000    0.0000    0.0000   -0.0000
z     0.0000   -0.0000    0.0000   -0.0000   -0.0000    0.0000   -0.0000    0.0000   -0.0000   -0.0000
z    -0.0000   -0.0000   -0.0000   -0.0000    0.0000   -0.0000   -0.0000    0.0000   -0.0000    0.0000
z    -0.0000   -0.0000   -0.0000    0.0000   -0.0000    0.0000    0.0000    0.0000   -0.0000   -0.0000
z     0.0000    0.0000
 total charge-density along one line
x   256.0000    0.0000   -0.0003   -0.0856   -0.0007   -0.1050   -0.0008   -0.0815   28.0143   -0.0457
x    -0.0003   -0.0164    0.0000   -0.0008    0.0001    0.0035   -0.5845    0.0019    0.0000   -0.0000
x    -0.0000   -0.0005   -0.0000   -0.0001   -0.0373    0.0002    0.0000    0.0001   -0.0000   -0.0001
x    -0.0000   -0.0001   -0.0030    0.0000    0.0000    0.0000    0.0000    0.0000   -0.0000   -0.0000
x     0.0012   -0.0000    0.0000    0.0000    0.0000    0.0000   -0.0000   -0.0000    0.0011   -0.0000
x     0.0000    0.0000    0.0000    0.0000    0.0000    0.0000    0.0005   -0.0000   -0.0000   -0.0000
x     0.0000    0.0000    0.0000    0.0000    0.0002   -0.0000   -0.0000   -0.0000    0.0000    0.0000
x     0.0000    0.0000   -0.0000    0.0000   -0.0000   -0.0000   -0.0000   -0.0000    0.0000    0.0000
x    -0.0001    0.0000   -0.0000   -0.0000   -0.0000   -0.0000    0.0000    0.0000   -0.0001    0.0000
x     0.0000    0.0000   -0.0000   -0.0000   -0.0000   -0.0000   -0.0000    0.0000    0.0000    0.0000
x    -0.0000   -0.0000   -0.0000   -0.0000   -0.0000    0.0000    0.0000    0.0000    0.0000    0.0000
x    -0.0000   -0.0000    0.0000   -0.0000    0.0000    0.0000    0.0000    0.0000   -0.0000   -0.0000
x     0.0000   -0.0000    0.0000    0.0000    0.0000    0.0000    0.0000    0.0000    0.0000   -0.0000
x    -0.0000   -0.0000    0.0000    0.0000    0.0000    0.0000    0.0000   -0.0000   -0.0000   -0.0000
x    -0.0000    0.0000
y   256.0000    0.0000   -0.0000    0.0001    0.0000   -0.0005    0.0000   -0.0005   28.0189    0.0000
y     0.0000   -0.0003    0.0000    0.0001    0.0000    0.0003   -0.5808    0.0000    0.0000   -0.0000
y     0.0000   -0.0000   -0.0000   -0.0000   -0.0374    0.0000   -0.0000    0.0000    0.0000    0.0000
y     0.0000    0.0000   -0.0030   -0.0000   -0.0000    0.0000   -0.0000    0.0000    0.0000    0.0000
y     0.0012   -0.0000    0.0000    0.0000    0.0000    0.0000    0.0000    0.0000    0.0011    0.0000
y     0.0000    0.0000    0.0000    0.0000    0.0000    0.0000    0.0005   -0.0000   -0.0000   -0.0000
y    -0.0000   -0.0000   -0.0000   -0.0000    0.0002   -0.0000   -0.0000   -0.0000    0.0000    0.0000
y     0.0000    0.0000   -0.0000    0.0000    0.0000    0.0000    0.0000    0.0000   -0.0000    0.0000
y    -0.0001    0.0000   -0.0000   -0.0000   -0.0000    0.0000   -0.0000    0.0000   -0.0001    0.0000
y    -0.0000    0.0000   -0.0000    0.0000   -0.0000    0.0000   -0.0000    0.0000   -0.0000    0.0000
y    -0.0000    0.0000   -0.0000   -0.0000   -0.0000   -0.0000   -0.0000   -0.0000    0.0000   -0.0000
y     0.0000   -0.0000    0.0000   -0.0000    0.0000   -0.0000    0.0000   -0.0000    0.0000   -0.0000
y     0.0000   -0.0000    0.0000   -0.0000   -0.0000   -0.0000   -0.0000   -0.0000    0.0000    0.0000
y     0.0000    0.0000   -0.0000    0.0000   -0.0000    0.0000    0.0000    0.0000   -0.0000    0.0000
y    -0.0000   -0.0000
z   256.0000    0.0000   -0.0000    0.0001    0.0000   -0.0005    0.0000   -0.0005   28.0135    0.0000
z     0.0000   -0.0004    0.0000    0.0001    0.0000    0.0003   -0.5832    0.0000    0.0000   -0.0001
z     0.0000   -0.0000   -0.0000   -0.0000   -0.0374    0.0000   -0.0000    0.0000    0.0000    0.0000
z     0.0000    0.0000   -0.0030   -0.0000   -0.0000    0.0000   -0.0000    0.0000    0.0000    0.0000
z     0.0012   -0.0000    0.0000    0.0000    0.0000    0.0000    0.0000    0.0000    0.0011    0.0000
z     0.0000    0.0000    0.0000    0.0000    0.0000    0.0000    0.0005   -0.0000   -0.0000   -0.0000
z    -0.0000   -0.0000   -0.0000   -0.0000    0.0002   -0.0000   -0.0000   -0.0000    0.0000    0.0000
z     0.0000    0.0000   -0.0000    0.0000    0.0000    0.0000    0.0000    0.0000   -0.0000    0.0000
z    -0.0001    0.0000   -0.0000   -0.0000   -0.0000    0.0000   -0.0000    0.0000   -0.0001    0.0000
z    -0.0000    0.0000   -0.0000    0.0000   -0.0000    0.0000   -0.0000    0.0000   -0.0000    0.0000
z    -0.0000    0.0000   -0.0000   -0.0000   -0.0000   -0.0000   -0.0000   -0.0000    0.0000   -0.0000
z     0.0000   -0.0000    0.0000   -0.0000    0.0000   -0.0000    0.0000   -0.0000    0.0000   -0.0000
z     0.0000   -0.0000    0.0000   -0.0000   -0.0000   -0.0000   -0.0000   -0.0000    0.0000    0.0000
z     0.0000    0.0000   -0.0000    0.0000   -0.0000    0.0000    0.0000    0.0000   -0.0000    0.0000
z    -0.0000   -0.0000
 
 pseudopotential strength for first ion, spin component:           1
-37.307   0.000   0.001   8.284  -0.000  -0.000  -0.000  -0.000
  0.000 -37.306   0.001  -0.000   8.284  -0.000  -0.000  -0.000
  0.001   0.001 -37.307  -0.000  -0.000   8.285  -0.000  -0.000
  8.284  -0.000  -0.000   7.864   0.000   0.000   0.000   0.000
 -0.000   8.284  -0.000   0.000   7.864   0.000   0.000   0.000
 -0.000  -0.000   8.285   0.000   0.000   7.864   0.000   0.000
 -0.000  -0.000  -0.000   0.000   0.000   0.000  -2.350   0.000
 -0.000  -0.000  -0.000   0.000   0.000   0.000   0.000  -2.350
  0.000  -0.000   0.000  -0.000   0.000  -0.000  -0.000   0.000
 -0.000  -0.000  -0.000   0.000   0.000   0.000   0.000   0.000
  0.000  -0.000  -0.000  -0.000   0.000   0.000   0.000  -0.000
 -0.000  -0.000  -0.000   0.000   0.000   0.000  -2.006   0.000
 -0.000  -0.000  -0.000   0.000   0.000   0.000   0.000  -2.006
  0.000  -0.000   0.000  -0.000   0.000  -0.000  -0.000   0.000
 -0.000  -0.000  -0.000   0.000   0.000   0.000   0.000   0.000
  0.000  -0.000  -0.000  -0.000   0.000   0.000   0.000  -0.000
  0.000   0.000   0.000   0.000   0.000   0.000  -0.000  -0.000
  0.000   0.000   0.001   0.000   0.000   0.000  -0.000  -0.000
 total augmentation occupancy for first ion, spin component:           1
  1.998  -0.000   0.000  -0.014  -0.000   0.000   0.000   0.000  -0.000  -0.000  -0.000  -0.000  -0.000   0.000   0.000   0.000
 -0.000   1.998   0.000  -0.000  -0.014   0.000  -0.000   0.000   0.000   0.000   0.000  -0.000  -0.000  -0.000  -0.000  -0.000
  0.000   0.000   1.998   0.000   0.000  -0.014   0.000  -0.000  -0.000   0.000   0.000  -0.000  -0.000   0.000  -0.000  -0.000
 -0.014  -0.000   0.000   0.102   0.000   0.000   0.002   0.001  -0.000   0.000  -0.001  -0.002  -0.001   0.000  -0.000   0.000
 -0.000  -0.014   0.000   0.000   0.103   0.000   0.000   0.001   0.001   0.002   0.000   0.000  -0.001  -0.001  -0.002   0.000
  0.000   0.000  -0.014   0.000   0.000   0.102   0.001  -0.000  -0.001   0.001   0.001  -0.001   0.000   0.001  -0.001  -0.001
  0.000  -0.000   0.000   0.002   0.000   0.001   2.734   0.000  -0.000   0.000   0.000  -0.719  -0.000   0.000   0.000   0.000
  0.000   0.000  -0.000   0.001   0.001  -0.000   0.000   2.734   0.000   0.000   0.000  -0.000  -0.719   0.000  -0.000   0.000
 -0.000   0.000  -0.000  -0.000   0.001  -0.001  -0.000   0.000   2.513   0.000  -0.000   0.000   0.000  -0.532  -0.000  -0.000
 -0.000   0.000   0.000   0.000   0.002   0.001   0.000   0.000   0.000   2.734   0.000   0.000  -0.000   0.000  -0.720   0.000
 -0.000   0.000   0.000  -0.001   0.000   0.001   0.000   0.000  -0.000   0.000   2.512   0.000   0.000  -0.000   0.000  -0.532
 -0.000  -0.000  -0.000  -0.002   0.000  -0.001  -0.719  -0.000   0.000   0.000   0.000   0.460   0.000  -0.000   0.000   0.000
 -0.000  -0.000  -0.000  -0.001  -0.001   0.000  -0.000  -0.719   0.000  -0.000   0.000   0.000   0.459   0.001  -0.000   0.000
  0.000  -0.000   0.000   0.000  -0.001   0.001   0.000   0.000  -0.532   0.000  -0.000  -0.000   0.001   0.418  -0.000  -0.000
  0.000  -0.000  -0.000  -0.000  -0.002  -0.001   0.000  -0.000  -0.000  -0.720   0.000   0.000  -0.000  -0.000   0.458   0.000
  0.000  -0.000  -0.000   0.000   0.000  -0.001   0.000   0.000  -0.000   0.000  -0.532   0.000   0.000  -0.000   0.000   0.416
 -0.000  -0.000  -0.000   0.001   0.001   0.002   0.000   0.000   0.000   0.001  -0.000  -0.000   0.000  -0.000   0.000  -0.001
  0.000   0.000   0.000  -0.000  -0.000  -0.000  -0.000  -0.000  -0.000  -0.000   0.000   0.000   0.000   0.000   0.000  -0.000


------------------------ aborting loop because EDIFF is reached ----------------------------------------


    CHARGE:  cpu time  165.89: real time  165.90
    FORLOC:  cpu time    0.20: real time    0.20
    FORNL :  cpu time  163.44: real time  163.46
    STRESS:  cpu time  174.62: real time  174.63
    FORCOR:  cpu time    3.17: real time    3.18
    FORHAR:  cpu time    0.88: real time    0.88
    MIXING:  cpu time    0.10: real time    0.10

  FORCE on cell =-STRESS in cart. coord.  units (eV):
  Direction    XX          YY          ZZ          XY          YZ          ZX
  --------------------------------------------------------------------------------------
  Alpha Z  2154.88741  2154.88741  2154.88741
  Ewald  -11477.08413-11477.04578-11477.04578    -0.00891    -0.00978    -0.00891
  Hartree  2886.77761  2887.24106  2887.16951     0.07519     0.23152     0.30296
  E(xc)   -1451.75600 -1451.74750 -1451.75134    -0.00132     0.00288     0.00181
  Local    2851.18709  2849.99436  2850.06681    -0.24627    -0.57636    -0.77301
  n-local  -449.49887  -449.06373  -449.36303    -0.13422     0.15333     0.01050
  augment  1945.10523  1945.21336  1945.39551     0.18073     0.10445     0.23003
  Kinetic  3543.72033  3543.91895  3544.15042     0.23776     0.21590     0.24708
  Fock        0.00000     0.00000     0.00000     0.00000     0.00000     0.00000
  -------------------------------------------------------------------------------------
  Total       3.33868     3.39812     3.50951     0.10296     0.12193     0.01045
  in kB      22.08220    22.47536    23.21207     0.68098     0.80646     0.06915
  external pressure =       22.59 kB  Pullay stress =        0.00 kB


 VOLUME and BASIS-vectors are now :
 -----------------------------------------------------------------------------
  energy-cutoff  :      500.00
  volume of cell :      242.24
      direct lattice vectors                 reciprocal lattice vectors
     7.854000000  3.927000000  3.927000000     0.190985485 -0.063661828 -0.063661828
     3.927000000  7.854000000  3.927000000    -0.063661828  0.190985485 -0.063661828
     3.927000000  3.927000000  7.854000000    -0.063661828 -0.063661828  0.190985485

  length of vectors
     9.619146220  9.619146220  9.619146220     0.211142398  0.211142398  0.211142398


 FORCES acting on ions
    electron-ion (+dipol)            ewald-force                    non-local-force                 convergence-correction
 -----------------------------------------------------------------------------------------------
   0.823E+01 0.457E+01 0.457E+01   -.826E+01 -.458E+01 -.458E+01   -.503E-01 -.284E-01 -.280E-01   -.201E-04 -.272E-05 -.136E-04
   0.564E+00 -.142E+01 -.142E+01   -.566E+00 0.143E+01 0.143E+01   0.146E-02 0.540E-02 0.554E-02   0.613E-05 0.655E-05 0.136E-04
   -.979E+00 -.942E+00 -.942E+00   0.970E+00 0.934E+00 0.934E+00   0.667E-02 0.558E-02 0.560E-02   0.278E-04 0.556E-05 0.171E-04
   0.546E+00 -.143E+01 -.143E+01   -.547E+00 0.143E+01 0.143E+01   0.135E-02 0.552E-02 0.567E-02   -.133E-04 -.527E-05 -.116E-04
   -.195E+01 0.286E+00 -.233E+01   0.196E+01 -.287E+00 0.234E+01   0.808E-02 0.723E-03 0.800E-02   0.569E-05 0.640E-05 0.137E-04
   -.953E+00 -.991E+00 -.120E+01   0.955E+00 0.992E+00 0.121E+01   -.817E-03 -.699E-03 -.308E-02   0.220E-04 0.440E-04 0.168E-04
   -.195E+01 0.269E+00 -.231E+01   0.195E+01 -.270E+00 0.232E+01   0.812E-02 0.640E-03 0.805E-02   -.312E-05 -.972E-05 -.104E-04
   0.636E+00 0.352E+01 0.176E+01   -.633E+00 -.353E+01 -.177E+01   0.567E-02 -.490E-02 0.511E-02   -.215E-04 -.449E-04 -.207E-04
   -.195E+01 -.233E+01 0.286E+00   0.196E+01 0.234E+01 -.287E+00   0.797E-02 0.801E-02 0.643E-03   0.781E-05 0.907E-05 0.215E-05
   -.953E+00 -.120E+01 -.991E+00   0.955E+00 0.121E+01 0.992E+00   -.121E-02 -.322E-02 -.930E-03   0.230E-04 0.560E-05 0.335E-04
   -.195E+01 -.231E+01 0.269E+00   0.195E+01 0.232E+01 -.270E+00   0.802E-02 0.807E-02 0.568E-03   -.579E-05 -.675E-05 -.600E-05
   0.636E+00 0.176E+01 0.352E+01   -.633E+00 -.177E+01 -.353E+01   0.537E-02 0.498E-02 -.507E-02   -.235E-04 -.991E-05 -.350E-04
   -.128E+01 -.103E+01 -.103E+01   0.128E+01 0.103E+01 0.103E+01   -.319E-02 -.114E-02 -.977E-03   0.232E-04 0.407E-04 0.293E-04
   -.519E+00 -.263E+00 -.263E+00   0.522E+00 0.264E+00 0.264E+00   -.201E-02 -.565E-03 -.807E-03   -.869E-05 -.852E-05 -.193E-05
   0.239E+01 0.176E+01 0.176E+01   -.240E+01 -.176E+01 -.176E+01   0.685E-02 0.565E-03 0.440E-03   -.300E-04 -.406E-04 -.294E-04
   -.516E+00 -.255E+00 -.255E+00   0.519E+00 0.256E+00 0.256E+00   -.204E-02 -.552E-03 -.788E-03   0.124E-04 0.104E-04 0.383E-05
 -----------------------------------------------------------------------------------------------
   -.428E-05 -.258E-05 -.371E-05   0.184E-12 -.180E-12 -.107E-12   -.664E-05 -.538E-05 -.678E-05   0.214E-05 -.229E-06 0.121E-05
 
 
 POSITION                                       TOTAL-FORCE (eV/Angst)
 -----------------------------------------------------------------------------------
      0.00816      0.00408      0.00408        -0.072323     -0.036060     -0.035531
      7.85400      5.89050      5.89050        -0.000394      0.009869      0.009928
      7.85400      7.85400      7.85400        -0.002474     -0.002061     -0.001967
      7.85400      9.81750      9.81750        -0.000311      0.009650      0.009713
      5.89050      7.85400      5.89050         0.014630     -0.000149      0.015043
      1.96350      1.96350      3.92700         0.000377      0.000510      0.001085
      9.81750      7.85400      9.81750         0.014093     -0.000085      0.014451
      5.89050      5.89050      3.92700         0.008197     -0.011556     -0.001205
      5.89050      5.89050      7.85400         0.014524      0.015146     -0.000292
      1.96350      3.92700      1.96350         0.000154      0.000904      0.000321
      9.81750      9.81750      7.85400         0.013989      0.014557     -0.000225
      5.89050      3.92700      5.89050         0.007813     -0.001404     -0.011688
      3.92700      1.96350      1.96350         0.001098      0.000573      0.000693
      3.92700      3.92700      3.92700         0.001005      0.000757      0.000611
      3.92700      5.89050      5.89050        -0.001414     -0.001424     -0.001573
     11.78100     11.78100     11.78100         0.001036      0.000774      0.000637
 -----------------------------------------------------------------------------------
    total drift:                               -0.000009     -0.000008     -0.000009


--------------------------------------------------------------------------------------------------------



  FREE ENERGIE OF THE ION-ELECTRON SYSTEM (eV)
  ---------------------------------------------------
  free  energy   TOTEN  =       -83.37336175 eV

  energy  without entropy=      -83.16401125  energy(sigma->0) =      -83.26868650
 


--------------------------------------------------------------------------------------------------------


    POTLOK:  cpu time    6.75: real time    6.76


--------------------------------------------------------------------------------------------------------


     LOOP+:  cpu time36381.55: real time36388.99
    4ORBIT:  cpu time    0.00: real time    0.00

 total amount of memory used by VASP on root node   964113. kBytes
========================================================================

   base      :      30000. kBytes
   nonl-proj :      43380. kBytes
   grid      :     146764. kBytes
   one-center:        248. kBytes
   wavefun   :     743721. kBytes
 
  
  
 General timing and accounting informations for this job:
 ========================================================
  
                  Total CPU time used (sec):    36423.039
                            User time (sec):    35357.259
                          System time (sec):     1065.779
                         Elapsed time (sec):    36431.824
  
                   Maximum memory used (kb):     2439524.
                   Average memory used (kb):           0.
  
                          Minor page faults:    669757139
                          Major page faults:           20
                 Voluntary context switches:          551
