 vasp.5.3.3 18Dez12 (build Jun 21 2016 14:15:03) complex                        
  
 executed on             LinuxIFC date 2017.10.11  15:33:49
 serial version


--------------------------------------------------------------------------------------------------------


 INCAR:
 POTCAR:    PAW_PBE Pd_pv 28Jan2005               
 POTCAR:    PAW_PBE Pd_pv 28Jan2005               
   VRHFIN =Pd: 4p5s4d                                                           
   LEXCH  = PE                                                                  
   EATOM  =  2621.5550 eV,  192.6789 Ry                                         
                                                                                
   TITEL  = PAW_PBE Pd_pv 28Jan2005                                             
   LULTRA =        F    use ultrasoft PP ?                                      
   IUNSCR =        1    unscreen: 0-lin 1-nonlin 2-no                           
   RPACOR =    2.250    partial core radius                                     
   POMASS =  106.420; ZVAL   =   16.000    mass and valenz                      
   RCORE  =    2.400    outmost cutoff radius                                   
   RWIGS  =    2.300; RWIGS  =    1.217    wigner-seitz radius (au A)           
   ENMAX  =  250.925; ENMIN  =  188.194 eV                                      
   ICORE  =        3    local potential                                         
   LCOR   =        T    correct aug charges                                     
   LPAW   =        T    paw PP                                                  
   EAUG   =  473.067                                                            
   DEXC   =    0.000                                                            
   RMAX   =    2.449    core radius for proj-oper                               
   RAUG   =    1.300    factor for augmentation sphere                          
   RDEP   =    2.405    radius for radial grids                                 
   RDEPT  =    1.966    core radius for aug-charge                              
                                                                                
   Atomic configuration                                                         
   11 entries                                                                   
     n  l   j            E        occ.                                          
     1  0  0.50    -24164.6632   2.0000                                         
     2  0  0.50     -3530.9218   2.0000                                         
     2  1  1.50     -3165.6822   6.0000                                         
     3  0  0.50      -639.4578   2.0000                                         
     3  1  1.50      -519.4532   6.0000                                         
     3  2  2.50      -328.9758  10.0000                                         
     4  0  0.50       -88.7014   2.0000                                         
     4  1  1.50       -54.4541   6.0000                                         
     4  2  2.50        -6.6878   9.0000                                         
     5  0  0.50        -4.3543   1.0000                                         
     4  3  2.50        -1.3606   0.0000                                         
   Description                                                                  
     l       E           TYP  RCUT    TYP  RCUT                                 
     1    -54.4540524     23  2.100                                             
     1      4.0817478     23  2.100                                             
     2     -6.6878326     23  2.400                                             
     2     -4.0817478     23  2.400                                             
     0     -4.3542962     23  2.400                                             
     0     13.6058260     23  2.400                                             
     3     -5.4423304     23  2.400                                             
  local pseudopotential read in
  partial core-charges read in
  partial kinetic energy density read in
  atomic valenz-charges read in
  non local Contribution for L=           1  read in
    real space projection operators read in
  non local Contribution for L=           1  read in
    real space projection operators read in
  non local Contribution for L=           2  read in
    real space projection operators read in
  non local Contribution for L=           2  read in
    real space projection operators read in
  non local Contribution for L=           0  read in
    real space projection operators read in
  non local Contribution for L=           0  read in
    real space projection operators read in
    PAW grid and wavefunctions read in
 
   number of l-projection  operators is LMAX  =           6
   number of lm-projection operators is LMMAX =          18
 

 ----------------------------------------------------------------------------- 
|                                                                             |
|  ADVICE TO THIS USER RUNNING 'VASP/VAMP'   (HEAR YOUR MASTER'S VOICE ...):  |
|                                                                             |
|      You have a (more or less) 'large supercell' and for larger cells       |
|      it might be more efficient to use real space projection opertators     |
|      So try LREAL= Auto  in the INCAR   file.                               |
|      Mind: At the moment your POTCAR file does not contain real space       |
|       projectors, and has to be modified,  BUT if you                       |
|      want to do an extremely  accurate calculation you might also keep the  |
|      reciprocal projection scheme          (i.e. LREAL=.FALSE.)             |
|                                                                             |
 ----------------------------------------------------------------------------- 

  PAW_PBE Pd_pv 28Jan2005               :
 energy of atom  1       EATOM=-2621.5550
 kinetic energy error for atom=    0.0092 (will be added to EATOM!!)
 
 
 POSCAR: Pd                                      
  positions in cartesian coordinates
  No initial velocities read in
 exchange correlation table for  LEXCH =        8
   RHO(1)=    0.500       N(1)  =     2000
   RHO(2)=  100.500       N(2)  =     4000
 


--------------------------------------------------------------------------------------------------------


 ion  position               nearest neighbor table
   1  0.001  0.000  0.000-   2 2.77   4 2.77   8 2.77  10 2.77  20 2.77  16 2.78  22 2.78   6 2.78
                            19 2.78   7 2.78  12 2.78   3 2.79
   2  0.333  0.000  0.000-   1 2.77   3 2.78   9 2.78  21 2.78   8 2.78   4 2.78  10 2.78  11 2.78
                            17 2.78  20 2.78   5 2.78  23 2.78
   3  0.667  0.000  0.000-   2 2.78   5 2.78  11 2.78   7 2.78   9 2.78   6 2.78  12 2.78  18 2.78
                            19 2.78  21 2.78  24 2.78   1 2.79
   4  0.000  0.333  0.000-   1 2.77   7 2.78   9 2.78  25 2.78   2 2.78   5 2.78  10 2.78  13 2.78
                            15 2.78  22 2.78  23 2.78   6 2.78
   5  0.333  0.333  0.000-   6 2.78   8 2.78   7 2.78   3 2.78  24 2.78  26 2.78  11 2.78  13 2.78
                            14 2.78  23 2.78   4 2.78   2 2.78
   6  0.667  0.333  0.000-   5 2.78   8 2.78   9 2.78  14 2.78  27 2.78  12 2.78   4 2.78  15 2.78
                            22 2.78  24 2.78   3 2.78   1 2.78
   7  0.000  0.667  0.000-   4 2.78   5 2.78  13 2.78   8 2.78   9 2.78   3 2.78  16 2.78  18 2.78
                            19 2.78  25 2.78  26 2.78   1 2.78
   8  0.333  0.667  0.000-   1 2.77   5 2.78   6 2.78   9 2.78  14 2.78  27 2.78   7 2.78  16 2.78
                            17 2.78  20 2.78  26 2.78   2 2.78
   9  0.667  0.667  0.000-   6 2.78   8 2.78   2 2.78   4 2.78  15 2.78  17 2.78   7 2.78   3 2.78
                            18 2.78  21 2.78  25 2.78  27 2.78
  10  0.000  0.000  0.333-   1 2.77  19 2.78  21 2.78  25 2.78  12 2.78  13 2.78  15 2.78  16 2.78
                            17 2.78   2 2.78   4 2.78  11 2.78
  11  0.333  0.000  0.333-  12 2.78  20 2.78  18 2.78  19 2.78   3 2.78  26 2.78  14 2.78  17 2.78
                             5 2.78  10 2.78   2 2.78  13 2.78
  12  0.667  0.000  0.333-  11 2.78  20 2.78  21 2.78  14 2.78  27 2.78  15 2.78  16 2.78  18 2.78
                            10 2.78   3 2.78   6 2.78   1 2.78
  13  0.000  0.333  0.333-  16 2.78  22 2.78  18 2.78  19 2.78   7 2.78  24 2.78  15 2.78   5 2.78
                             4 2.78  10 2.78  11 2.78  14 2.78
  14  0.333  0.333  0.333-  15 2.78  17 2.78  23 2.78   6 2.78  16 2.78   8 2.78  20 2.78  22 2.78
                            12 2.78  11 2.78   5 2.78  13 2.78
  15  0.667  0.333  0.333-  14 2.78  17 2.78  18 2.78  23 2.78  24 2.78   9 2.78  21 2.78   4 2.78
                            10 2.78  12 2.78  13 2.78   6 2.78
  16  0.000  0.667  0.333-  13 2.78  22 2.78  25 2.78  14 2.78  27 2.78   8 2.78  17 2.78  18 2.78
                            10 2.78  12 2.78   7 2.78   1 2.78
  17  0.333  0.667  0.333-  14 2.78  15 2.78  18 2.78  23 2.78  26 2.78  25 2.78   9 2.78  16 2.78
                            10 2.78  11 2.78   8 2.78   2 2.78
  18  0.667  0.667  0.333-  15 2.78  17 2.78  24 2.78  26 2.78  27 2.78  13 2.78  11 2.78  16 2.78
                             3 2.78  12 2.78   7 2.78   9 2.78
  19  0.000  0.000  0.667-  10 2.78  11 2.78  13 2.78   7 2.78   3 2.78  20 2.78  21 2.78  22 2.78
                            24 2.78  25 2.78  26 2.78   1 2.78
  20  0.333  0.000  0.667-   1 2.77  11 2.78  12 2.78  21 2.78  14 2.78  27 2.78  19 2.78   8 2.78
                            22 2.78  23 2.78  26 2.78   2 2.78
  21  0.667  0.000  0.667-  12 2.78  20 2.78   2 2.78  15 2.78  10 2.78  23 2.78  19 2.78   9 2.78
                             3 2.78  24 2.78  25 2.78  27 2.78
  22  0.000  0.333  0.667-  13 2.78  16 2.78  25 2.78  14 2.78  27 2.78  19 2.78  20 2.78  23 2.78
                            24 2.78   6 2.78   4 2.78   1 2.78
  23  0.333  0.333  0.667-  14 2.78  15 2.78  17 2.78  24 2.78  26 2.78  25 2.78  21 2.78   2 2.78
                            22 2.78   4 2.78   5 2.78  20 2.78
  24  0.667  0.333  0.667-  15 2.78  18 2.78  23 2.78  26 2.78  27 2.78  13 2.78   5 2.78  21 2.78
                            22 2.78   6 2.78   3 2.78  19 2.78
  25  0.000  0.667  0.667-  16 2.78  22 2.78   4 2.78  17 2.78  10 2.78  23 2.78  19 2.78  21 2.78
                             9 2.78   7 2.78  26 2.78  27 2.78
  26  0.333  0.667  0.667-  17 2.78  18 2.78  23 2.78  24 2.78  27 2.78  11 2.78   5 2.78  20 2.78
                             8 2.78   7 2.78  25 2.78  19 2.78
  27  0.667  0.667  0.667-  18 2.78  24 2.78  26 2.78  16 2.78   6 2.78  20 2.78  22 2.78   8 2.78
                            12 2.78  21 2.78  25 2.78   9 2.78
 

IMPORTANT INFORMATION: All symmetrisations will be switched off!
NOSYMM: (Re-)initialisation of all symmetry stuff for point group C_1.

 
 
 KPOINTS: Server version 2017.05.18. K-point grid 
  k-points in reciprocal lattice
Space group operators:
 irot       det(A)        alpha          n_x          n_y          n_z        tau_x        tau_y        tau_z
    1     1.000000     0.000001     1.000000     0.000000     0.000000     0.000000     0.000000     0.000000


--------------------------------------------------------------------------------------------------------




 Dimension of arrays:
   k-points           NKPTS =     26   k-points in BZ     NKDIM =     26   number of bands    NBANDS=    259
   number of dos      NEDOS =    301   number of ions     NIONS =     27
   non local maximal  LDIM  =      6   non local SUM 2l+1 LMDIM =     18
   total plane-waves  NPLWV = 262144
   max r-space proj   IRMAX =      1   max aug-charges    IRDMAX= 205565
   dimension x,y,z NGX =    64 NGY =   64 NGZ =   64
   dimension x,y,z NGXF=   128 NGYF=  128 NGZF=  128
   support grid    NGXF=   256 NGYF=  256 NGZF=  256
   ions per type =              27
 NGX,Y,Z   is equivalent  to a cutoff of  12.77, 12.77, 12.77 a.u.
 NGXF,Y,Z  is equivalent  to a cutoff of  25.54, 25.54, 25.54 a.u.


 I would recommend the setting:
   dimension x,y,z NGX =    61 NGY =   61 NGZ =   61
 SYSTEM =  unknown system                          
 POSCAR =  Pd                                      

 Startparameter for this run:
   NWRITE =      2    write-flag & timer
   PREC   = a         normal or accurate (medium, high low for compatibility)
   ISTART =      0    job   : 0-new  1-cont  2-samecut
   ICHARG =      2    charge: 1-file 2-atom 10-const
   ISPIN  =      1    spin polarized calculation?
   LNONCOLLINEAR =      F non collinear calculations
   LSORBIT =      F    spin-orbit coupling
   INIWAV =      1    electr: 0-lowe 1-rand  2-diag
   LASPH  =      F    aspherical Exc in radial PAW
   METAGGA=      F    non-selfconsistent MetaGGA calc.

 Electronic Relaxation 1
   ENCUT  =  500.0 eV  36.75 Ry    6.06 a.u.  15.19 15.19 15.19*2*pi/ulx,y,z
   ENINI  =  500.0     initial cutoff
   ENAUG  =  473.1 eV  augmentation charge cutoff
   NELM   =     60;   NELMIN=  2; NELMDL=  0     # of ELM steps 
   EDIFF  = 0.1E-07   stopping-criterion for ELM
   LREAL  =      F    real-space projection
   NLSPLINE    = F    spline interpolate recip. space projectors
   LCOMPAT=      F    compatible to vasp.4.4
   GGA_COMPAT  = T    GGA compatible to vasp.4.4-vasp.4.6
   LMAXPAW     = -100 max onsite density
   LMAXMIX     =    2 max onsite mixed and CHGCAR
   VOSKOWN=      0    Vosko Wilk Nusair interpolation
   ROPT   =    0.00000
 Ionic relaxation
   EDIFFG = 0.1E-06   stopping-criterion for IOM
   NSW    =      0    number of steps for IOM
   NBLOCK =      1;   KBLOCK =      1    inner block; outer block 
   IBRION =     -1    ionic relax: 0-MD 1-quasi-New 2-CG
   NFREE  =      0    steps in history (QN), initial steepest desc. (CG)
   ISIF   =      2    stress and relaxation
   IWAVPR =      0    prediction:  0-non 1-charg 2-wave 3-comb
   ISYM   =      0    0-nonsym 1-usesym 2-fastsym
   LCORR  =      T    Harris-Foulkes like correction to forces

   POTIM  = 0.5000    time-step for ionic-motion
   TEIN   =    0.0    initial temperature
   TEBEG  =    0.0;   TEEND  =   0.0 temperature during run
   SMASS  =  -3.00    Nose mass-parameter (am)
   estimated Nose-frequenzy (Omega)   =  0.10E-29 period in steps =****** mass=  -0.159E-26a.u.
   SCALEE = 1.0000    scale energy and forces
   NPACO  =    256;   APACO  = 16.0  distance and # of slots for P.C.
   PSTRESS=    0.0 pullay stress

  Mass of Ions in am
   POMASS = 106.42
  Ionic Valenz
   ZVAL   =  16.00
  Atomic Wigner-Seitz radii
   RWIGS  =  -1.00
  virtual crystal weights 
   VCA    =   1.00
   NELECT =     432.0000    total number of electrons
   NUPDOWN=      -1.0000    fix difference up-down

 DOS related values:
   EMIN   =  10.00;   EMAX   =-10.00  energy-range for DOS
   EFERMI =   0.00
   ISMEAR =     0;   SIGMA  =   0.10  broadening in eV -4-tet -1-fermi 0-gaus

 Electronic relaxation 2 (details)
   IALGO  =     38    algorithm
   LDIAG  =      T    sub-space diagonalisation (order eigenvalues)
   LSUBROT=      T    optimize rotation matrix (better conditioning)
   TURBO    =      0    0=normal 1=particle mesh
   IRESTART =      0    0=no restart 2=restart with 2 vectors
   NREBOOT  =      0    no. of reboots
   NMIN     =      0    reboot dimension
   EREF     =   0.00    reference energy to select bands
   IMIX   =      4    mixing-type and parameters
     AMIX     =   0.40;   BMIX     =  1.00
     AMIX_MAG =   1.60;   BMIX_MAG =  1.00
     AMIN     =   0.10
     WC   =   100.;   INIMIX=   1;  MIXPRE=   1;  MAXMIX= -45

 Intra band minimization:
   WEIMIN = 0.0000     energy-eigenvalue tresh-hold
   EBREAK =  0.97E-11  absolut break condition
   DEPER  =   0.30     relativ break condition  

   TIME   =   0.40     timestep for ELM

  volume/ion in A,a.u.               =      15.14       102.17
  Fermi-wavevector in a.u.,A,eV,Ry     =   1.667531  3.151177 37.833172  2.780660
  Thomas-Fermi vector in A             =   2.753537
 
 Write flags
   LWAVE  =      F    write WAVECAR
   LCHARG =      T    write CHGCAR
   LVTOT  =      F    write LOCPOT, total local potential
   LVHAR  =      F    write LOCPOT, Hartree potential only
   LELF   =      F    write electronic localiz. function (ELF)
   LORBIT =      0    0 simple, 1 ext, 2 COOP (PROOUT)


 Dipole corrections
   LMONO  =      F    monopole corrections only (constant potential shift)
   LDIPOL =      F    correct potential (dipole corrections)
   IDIPOL =      0    1-x, 2-y, 3-z, 4-all directions 
   EPSILON=  1.0000000 bulk dielectric constant

 Exchange correlation treatment:
   GGA     =    --    GGA type
   LEXCH   =     8    internal setting for exchange type
   VOSKOWN=      0    Vosko Wilk Nusair interpolation
   LHFCALC =     F    Hartree Fock is set to
   LHFONE  =     F    Hartree Fock one center treatment
   AEXX    =    0.0000 exact exchange contribution

 Linear response parameters
   LEPSILON=     F    determine dielectric tensor
   LRPA    =     F    only Hartree local field effects (RPA)
   LNABLA  =     F    use nabla operator in PAW spheres
   LVEL    =     F    velocity operator in full k-point grid
   LINTERFAST=   F  fast interpolation
   KINTER  =     0    interpolate to denser k-point grid
   CSHIFT  =0.1000    complex shift for real part using Kramers Kronig
   OMEGAMAX=  -1.0    maximum frequency
   DEG_THRESHOLD= 0.2000000E-02 threshold for treating states as degnerate
   RTIME   =    0.100 relaxation time in fs

 Orbital magnetization related:
   ORBITALMAG=     F  switch on orbital magnetization
   LCHIMAG   =     F  perturbation theory with respect to B field
   DQ        =  0.001000  dq finite difference perturbation B field



--------------------------------------------------------------------------------------------------------


 Static calculation
 charge density and potential will be updated during run
 non-spin polarized calculation
 Variant of blocked Davidson
 Davidson routine will perform the subspace rotation
 perform sub-space diagonalisation
    after iterative eigenvector-optimisation
 modified Broyden-mixing scheme, WC =      100.0
 initial mixing is a Kerker type mixing with AMIX =  0.4000 and BMIX =      1.0000
 Hartree-type preconditioning will be used
 using additional bands           43
 reciprocal scheme for non local part
 use partial core corrections
 calculate Harris-corrections to forces 
   (improved forces if not selfconsistent)
 use gradient corrections 
 use of overlap-Matrix (Vanderbilt PP)
 Gauss-broadening in eV      SIGMA  =   0.10


--------------------------------------------------------------------------------------------------------


  energy-cutoff  :      500.00
  volume of cell :      408.78
      direct lattice vectors                 reciprocal lattice vectors
     0.000000000  5.890500000  5.890500000    -0.084882438  0.084882438  0.084882438
     5.890500000  0.000000000  5.890500000     0.084882438 -0.084882438  0.084882438
     5.890500000  5.890500000  0.000000000     0.084882438  0.084882438 -0.084882438

  length of vectors
     8.330424989  8.330424989  8.330424989     0.147020695  0.147020695  0.147020695


 
 k-points in units of 2pi/SCALE and weight: Server version 2017.05.18. K-point grid 
   0.03019856  0.01713972  0.01550737       0.038
   0.04652211 -0.00571324  0.05141917       0.038
   0.06284565 -0.02856621  0.08733097       0.038
  -0.00571324  0.03346327  0.03836033       0.038
   0.01061030  0.01061030  0.07427213       0.038
   0.02693385 -0.01224266  0.11018393       0.038
  -0.04162504  0.04978681  0.06121330       0.038
  -0.02530150  0.02693385  0.09712510       0.038
   0.07590449  0.08896332  0.04815446       0.038
   0.00734560  0.15099280 -0.00081618       0.038
   0.02366914  0.12813983  0.03509562       0.038
   0.12487512  0.02040443 -0.01387501       0.038
   0.14119867 -0.00244853  0.02203679       0.038
   0.07263978  0.05958094 -0.02693385       0.038
   0.08896332  0.03672798  0.00897795       0.038
   0.10528687  0.01387501  0.04488975       0.038
   0.03672798  0.07590449 -0.00408089       0.038
   0.05305152  0.05305152  0.03183091       0.038
   0.06937507  0.03019856  0.06774271       0.038
   0.00081618  0.09222803  0.01877208       0.038
   0.01713972  0.06937507  0.05468388       0.038
   0.03346327  0.04652211  0.09059568       0.038
  -0.03509562  0.10855158  0.04162504       0.038
  -0.01877208  0.08569862  0.07753684       0.038
   0.08243391 -0.02203679  0.02856621       0.038
   0.09875745 -0.04488975  0.06447801       0.038
 
 k-points in reciprocal lattice and weights: Server version 2017.05.18. K-point grid 
   0.19230769  0.26923077  0.27884615       0.038
   0.26923077  0.57692308  0.24038462       0.038
   0.34615385  0.88461538  0.20192308       0.038
   0.42307692  0.19230769  0.16346154       0.038
   0.50000000  0.50000000  0.12500000       0.038
   0.57692308  0.80769231  0.08653846       0.038
   0.65384615  0.11538462  0.04807692       0.038
   0.73076923  0.42307692  0.00961538       0.038
   0.80769231  0.73076923  0.97115385       0.038
   0.88461538  0.03846154  0.93269231       0.038
   0.96153846  0.34615385  0.89423077       0.038
   0.03846154  0.65384615  0.85576923       0.038
   0.11538462  0.96153846  0.81730769       0.038
   0.19230769  0.26923077  0.77884615       0.038
   0.26923077  0.57692308  0.74038462       0.038
   0.34615385  0.88461538  0.70192308       0.038
   0.42307692  0.19230769  0.66346154       0.038
   0.50000000  0.50000000  0.62500000       0.038
   0.57692308  0.80769231  0.58653846       0.038
   0.65384615  0.11538462  0.54807692       0.038
   0.73076923  0.42307692  0.50961538       0.038
   0.80769231  0.73076923  0.47115385       0.038
   0.88461538  0.03846154  0.43269231       0.038
   0.96153846  0.34615385  0.39423077       0.038
   0.03846154  0.65384615  0.35576923       0.038
   0.11538462  0.96153846  0.31730769       0.038
 
 position of ions in fractional coordinates (direct lattice) 
   0.00120042  0.00000000  0.00000000
   0.33333333  0.00000000  0.00000000
   0.66666667  0.00000000  0.00000000
   0.00000000  0.33333333  0.00000000
   0.33333333  0.33333333  0.00000000
   0.66666667  0.33333333  0.00000000
   0.00000000  0.66666667  0.00000000
   0.33333333  0.66666667  0.00000000
   0.66666667  0.66666667  0.00000000
   0.00000000  0.00000000  0.33333333
   0.33333333  0.00000000  0.33333333
   0.66666667  0.00000000  0.33333333
   0.00000000  0.33333333  0.33333333
   0.33333333  0.33333333  0.33333333
   0.66666667  0.33333333  0.33333333
   0.00000000  0.66666667  0.33333333
   0.33333333  0.66666667  0.33333333
   0.66666667  0.66666667  0.33333333
   0.00000000  0.00000000  0.66666667
   0.33333333  0.00000000  0.66666667
   0.66666667  0.00000000  0.66666667
   0.00000000  0.33333333  0.66666667
   0.33333333  0.33333333  0.66666667
   0.66666667  0.33333333  0.66666667
   0.00000000  0.66666667  0.66666667
   0.33333333  0.66666667  0.66666667
   0.66666667  0.66666667  0.66666667
 
 position of ions in cartesian coordinates  (Angst):
   0.00000000  0.00707107  0.00707107
   0.00000000  1.96350000  1.96350000
   0.00000000  3.92700000  3.92700000
   1.96350000  0.00000000  1.96350000
   1.96350000  1.96350000  3.92700000
   1.96350000  3.92700000  5.89050000
   3.92700000  0.00000000  3.92700000
   3.92700000  1.96350000  5.89050000
   3.92700000  3.92700000  7.85400000
   1.96350000  1.96350000  0.00000000
   1.96350000  3.92700000  1.96350000
   1.96350000  5.89050000  3.92700000
   3.92700000  1.96350000  1.96350000
   3.92700000  3.92700000  3.92700000
   3.92700000  5.89050000  5.89050000
   5.89050000  1.96350000  3.92700000
   5.89050000  3.92700000  5.89050000
   5.89050000  5.89050000  7.85400000
   3.92700000  3.92700000  0.00000000
   3.92700000  5.89050000  1.96350000
   3.92700000  7.85400000  3.92700000
   5.89050000  3.92700000  1.96350000
   5.89050000  5.89050000  3.92700000
   5.89050000  7.85400000  5.89050000
   7.85400000  3.92700000  3.92700000
   7.85400000  5.89050000  5.89050000
   7.85400000  7.85400000  7.85400000
 


--------------------------------------------------------------------------------------------------------


 k-point  1 :   0.1923 0.2692 0.2788  plane waves:   10379
 k-point  2 :   0.2692 0.5769 0.2404  plane waves:   10378
 k-point  3 :   0.3462 0.8846 0.2019  plane waves:   10381
 k-point  4 :   0.4231 0.1923 0.1635  plane waves:   10383
 k-point  5 :   0.5000 0.5000 0.1250  plane waves:   10392
 k-point  6 :   0.5769 0.8077 0.0865  plane waves:   10384
 k-point  7 :   0.6538 0.1154 0.0481  plane waves:   10378
 k-point  8 :   0.7308 0.4231 0.0096  plane waves:   10390
 k-point  9 :   0.8077 0.7308 0.9712  plane waves:   10372
 k-point 10 :   0.8846 0.0385 0.9327  plane waves:   10376
 k-point 11 :   0.9615 0.3462 0.8942  plane waves:   10373
 k-point 12 :   0.0385 0.6538 0.8558  plane waves:   10367
 k-point 13 :   0.1154 0.9615 0.8173  plane waves:   10381
 k-point 14 :   0.1923 0.2692 0.7788  plane waves:   10379
 k-point 15 :   0.2692 0.5769 0.7404  plane waves:   10384
 k-point 16 :   0.3462 0.8846 0.7019  plane waves:   10382
 k-point 17 :   0.4231 0.1923 0.6635  plane waves:   10382
 k-point 18 :   0.5000 0.5000 0.6250  plane waves:   10371
 k-point 19 :   0.5769 0.8077 0.5865  plane waves:   10365
 k-point 20 :   0.6538 0.1154 0.5481  plane waves:   10402
 k-point 21 :   0.7308 0.4231 0.5096  plane waves:   10383
 k-point 22 :   0.8077 0.7308 0.4712  plane waves:   10372
 k-point 23 :   0.8846 0.0385 0.4327  plane waves:   10373
 k-point 24 :   0.9615 0.3462 0.3942  plane waves:   10378
 k-point 25 :   0.0385 0.6538 0.3558  plane waves:   10394
 k-point 26 :   0.1154 0.9615 0.3173  plane waves:   10371

 maximum number of plane-waves:     10402
 maximum index in each direction: 
   IXMAX=   15   IYMAX=   15   IZMAX=   15
   IXMIN=  -16   IYMIN=  -16   IZMIN=  -16

 NGX is ok and might be reduce to  64
 NGY is ok and might be reduce to  64
 NGZ is ok and might be reduce to  64

 total amount of memory used by VASP on root node  1359236. kBytes
========================================================================

   base      :      30000. kBytes
   nonl-proj :      43438. kBytes
   grid      :     112263. kBytes
   one-center:        419. kBytes
   wavefun   :    1173116. kBytes
 
 For storing wavefunctions 1118.34 MBYTES are necessary
 For predicting wavefunctions  107.99 MBYTES are necessary
 Broyden mixing: mesh for mixing (old mesh)
   NGX = 31   NGY = 31   NGZ = 31
  (NGX  =128   NGY  =128   NGZ  =128)
  gives a total of  29791 points

 initial charge density was supplied:
 charge density of overlapping atoms calculated
 number of electron     432.0000000 magnetization 
 keeping initial charge density in first step


--------------------------------------------------------------------------------------------------------


 Maximum index for augmentation-charges       199292 (set IRDMAX)


--------------------------------------------------------------------------------------------------------


 First call to EWALD:  gamma=   0.239
 Maximum number of real-space cells 3x 3x 3
 Maximum number of reciprocal cells 3x 3x 3

    FEWALD:  cpu time    0.01: real time    0.01


----------------------------------------- Iteration    1(   1)  ---------------------------------------


    POTLOK:  cpu time    2.32: real time    2.32
    SETDIJ:  cpu time    3.36: real time    3.36
     EDDAV:  cpu time 1088.41: real time 1088.51
       DOS:  cpu time    0.03: real time    0.03
    --------------------------------------------
      LOOP:  cpu time 1094.12: real time 1094.23

 eigenvalue-minimisations  : 13692
 total energy-change (2. order) : 0.5958327E+04  (-0.2544528E+05)
 number of electron     432.0000000 magnetization 
 augmentation part      432.0000000 magnetization 

 Free energy of the ion-electron system (eV)
  ---------------------------------------------------
  alpha Z        PSCENC =      3636.37249970
  Ewald energy   TEWEN  =    -58102.50555495
  -1/2 Hartree   DENC   =    -15100.42683113
  -exchange  EXHF       =         0.00000000
  -V(xc)+E(xc)   XCENC  =      2235.10004563
  PAW double counting   =     60965.73861232   -60187.51078808
  entropy T*S    EENTRO =        -0.02068570
  eigenvalues    EBANDS =      1729.84289545
  atomic energy  EATOM  =     70781.73722278
  ---------------------------------------------------
  free energy    TOTEN  =      5958.32741603 eV

  energy without entropy =     5958.34810173  energy(sigma->0) =     5958.33775888


--------------------------------------------------------------------------------------------------------




----------------------------------------- Iteration    1(   2)  ---------------------------------------


     EDDAV:  cpu time 1076.35: real time 1076.45
       DOS:  cpu time    0.03: real time    0.03
    --------------------------------------------
      LOOP:  cpu time 1076.39: real time 1076.49

 eigenvalue-minimisations  : 13484
 total energy-change (2. order) :-0.5743388E+04  (-0.5578269E+04)
 number of electron     432.0000000 magnetization 
 augmentation part      432.0000000 magnetization 

 Free energy of the ion-electron system (eV)
  ---------------------------------------------------
  alpha Z        PSCENC =      3636.37249970
  Ewald energy   TEWEN  =    -58102.50555495
  -1/2 Hartree   DENC   =    -15100.42683113
  -exchange  EXHF       =         0.00000000
  -V(xc)+E(xc)   XCENC  =      2235.10004563
  PAW double counting   =     60965.73861232   -60187.51078808
  entropy T*S    EENTRO =        -0.08143452
  eigenvalues    EBANDS =     -4013.48402994
  atomic energy  EATOM  =     70781.73722278
  ---------------------------------------------------
  free energy    TOTEN  =       214.93974181 eV

  energy without entropy =      215.02117633  energy(sigma->0) =      214.98045907


--------------------------------------------------------------------------------------------------------




----------------------------------------- Iteration    1(   3)  ---------------------------------------


     EDDAV:  cpu time 1118.18: real time 1118.28
       DOS:  cpu time    0.03: real time    0.03
    --------------------------------------------
      LOOP:  cpu time 1118.22: real time 1118.33

 eigenvalue-minimisations  : 14210
 total energy-change (2. order) :-0.3518586E+03  (-0.3177934E+03)
 number of electron     432.0000000 magnetization 
 augmentation part      432.0000000 magnetization 

 Free energy of the ion-electron system (eV)
  ---------------------------------------------------
  alpha Z        PSCENC =      3636.37249970
  Ewald energy   TEWEN  =    -58102.50555495
  -1/2 Hartree   DENC   =    -15100.42683113
  -exchange  EXHF       =         0.00000000
  -V(xc)+E(xc)   XCENC  =      2235.10004563
  PAW double counting   =     60965.73861232   -60187.51078808
  entropy T*S    EENTRO =        -0.32511260
  eigenvalues    EBANDS =     -4365.09890506
  atomic energy  EATOM  =     70781.73722278
  ---------------------------------------------------
  free energy    TOTEN  =      -136.91881138 eV

  energy without entropy =     -136.59369878  energy(sigma->0) =     -136.75625508


--------------------------------------------------------------------------------------------------------




----------------------------------------- Iteration    1(   4)  ---------------------------------------


     EDDAV:  cpu time 1108.83: real time 1108.94
       DOS:  cpu time    0.03: real time    0.03
    --------------------------------------------
      LOOP:  cpu time 1108.87: real time 1108.98

 eigenvalue-minimisations  : 14304
 total energy-change (2. order) :-0.1074505E+02  (-0.1060256E+02)
 number of electron     432.0000000 magnetization 
 augmentation part      432.0000000 magnetization 

 Free energy of the ion-electron system (eV)
  ---------------------------------------------------
  alpha Z        PSCENC =      3636.37249970
  Ewald energy   TEWEN  =    -58102.50555495
  -1/2 Hartree   DENC   =    -15100.42683113
  -exchange  EXHF       =         0.00000000
  -V(xc)+E(xc)   XCENC  =      2235.10004563
  PAW double counting   =     60965.73861232   -60187.51078808
  entropy T*S    EENTRO =        -0.33101765
  eigenvalues    EBANDS =     -4375.83804871
  atomic energy  EATOM  =     70781.73722278
  ---------------------------------------------------
  free energy    TOTEN  =      -147.66386009 eV

  energy without entropy =     -147.33284243  energy(sigma->0) =     -147.49835126


--------------------------------------------------------------------------------------------------------




----------------------------------------- Iteration    1(   5)  ---------------------------------------


     EDDAV:  cpu time 1093.42: real time 1093.52
       DOS:  cpu time    0.03: real time    0.04
    CHARGE:  cpu time   97.12: real time   97.12
    MIXING:  cpu time    0.05: real time    0.05
    --------------------------------------------
      LOOP:  cpu time 1190.62: real time 1190.73

 eigenvalue-minimisations  : 14200
 total energy-change (2. order) :-0.1162096E+00  (-0.1161369E+00)
 number of electron     432.0000011 magnetization 
 augmentation part      201.7294999 magnetization 

 Broyden mixing:
  rms(total) = 0.25254E+01    rms(broyden)= 0.25254E+01
  rms(prec ) = 0.33891E+01
  weight for this iteration     100.00

 Free energy of the ion-electron system (eV)
  ---------------------------------------------------
  alpha Z        PSCENC =      3636.37249970
  Ewald energy   TEWEN  =    -58102.50555495
  -1/2 Hartree   DENC   =    -15100.42683113
  -exchange  EXHF       =         0.00000000
  -V(xc)+E(xc)   XCENC  =      2235.10004563
  PAW double counting   =     60965.73861232   -60187.51078808
  entropy T*S    EENTRO =        -0.33107202
  eigenvalues    EBANDS =     -4375.95420390
  atomic energy  EATOM  =     70781.73722278
  ---------------------------------------------------
  free energy    TOTEN  =      -147.78006965 eV

  energy without entropy =     -147.44899762  energy(sigma->0) =     -147.61453363


--------------------------------------------------------------------------------------------------------




----------------------------------------- Iteration    1(   6)  ---------------------------------------


    POTLOK:  cpu time    2.29: real time    2.29
    SETDIJ:  cpu time    2.88: real time    2.88
     EDDAV:  cpu time 1079.38: real time 1079.47
       DOS:  cpu time    0.03: real time    0.03
    CHARGE:  cpu time   97.50: real time   97.51
    MIXING:  cpu time    0.05: real time    0.05
    --------------------------------------------
      LOOP:  cpu time 1182.13: real time 1185.48

 eigenvalue-minimisations  : 14080
 total energy-change (2. order) : 0.6903557E+01  (-0.2717691E+01)
 number of electron     432.0000011 magnetization 
 augmentation part      207.2465762 magnetization 

 Broyden mixing:
  rms(total) = 0.52112E+00    rms(broyden)= 0.52111E+00
  rms(prec ) = 0.56878E+00
  weight for this iteration     100.00

 eigenvalues of (default mixing * dielectric matrix)
  average eigenvalue GAMMA=   1.1132
  1.1132

 Free energy of the ion-electron system (eV)
  ---------------------------------------------------
  alpha Z        PSCENC =      3636.37249970
  Ewald energy   TEWEN  =    -58102.50555495
  -1/2 Hartree   DENC   =    -14638.93387283
  -exchange  EXHF       =         0.00000000
  -V(xc)+E(xc)   XCENC  =      2214.97465979
  PAW double counting   =     62406.31495415   -61679.00560487
  entropy T*S    EENTRO =        -0.32847408
  eigenvalues    EBANDS =     -4759.50234270
  atomic energy  EATOM  =     70781.73722278
  ---------------------------------------------------
  free energy    TOTEN  =      -140.87651300 eV

  energy without entropy =     -140.54803892  energy(sigma->0) =     -140.71227596


--------------------------------------------------------------------------------------------------------




----------------------------------------- Iteration    1(   7)  ---------------------------------------


    POTLOK:  cpu time    2.27: real time    2.27
    SETDIJ:  cpu time    2.86: real time    2.86
     EDDAV:  cpu time 1074.45: real time 1074.55
       DOS:  cpu time    0.03: real time    0.03
    CHARGE:  cpu time   96.24: real time   96.24
    MIXING:  cpu time    0.05: real time    0.05
    --------------------------------------------
      LOOP:  cpu time 1175.91: real time 1176.02

 eigenvalue-minimisations  : 14056
 total energy-change (2. order) : 0.7932757E-01  (-0.2254951E-01)
 number of electron     432.0000011 magnetization 
 augmentation part      207.1198545 magnetization 

 Broyden mixing:
  rms(total) = 0.31462E+00    rms(broyden)= 0.31462E+00
  rms(prec ) = 0.34524E+00
  weight for this iteration     100.00

 eigenvalues of (default mixing * dielectric matrix)
  average eigenvalue GAMMA=   1.7449
  0.9763  2.5135

 Free energy of the ion-electron system (eV)
  ---------------------------------------------------
  alpha Z        PSCENC =      3636.37249970
  Ewald energy   TEWEN  =    -58102.50555495
  -1/2 Hartree   DENC   =    -14634.51916937
  -exchange  EXHF       =         0.00000000
  -V(xc)+E(xc)   XCENC  =      2214.75351958
  PAW double counting   =     63280.93319370   -62562.41637017
  entropy T*S    EENTRO =        -0.32727212
  eigenvalues    EBANDS =     -4754.82525458
  atomic energy  EATOM  =     70781.73722278
  ---------------------------------------------------
  free energy    TOTEN  =      -140.79718543 eV

  energy without entropy =     -140.46991330  energy(sigma->0) =     -140.63354937


--------------------------------------------------------------------------------------------------------




----------------------------------------- Iteration    1(   8)  ---------------------------------------


    POTLOK:  cpu time    2.27: real time    2.27
    SETDIJ:  cpu time    2.84: real time    2.84
     EDDAV:  cpu time 1088.09: real time 1088.18
       DOS:  cpu time    0.03: real time    0.03
    CHARGE:  cpu time   96.38: real time   96.39
    MIXING:  cpu time    0.05: real time    0.05
    --------------------------------------------
      LOOP:  cpu time 1189.67: real time 1189.78

 eigenvalue-minimisations  : 14320
 total energy-change (2. order) : 0.7007885E-02  (-0.8896931E-02)
 number of electron     432.0000011 magnetization 
 augmentation part      207.1563078 magnetization 

 Broyden mixing:
  rms(total) = 0.16615E+00    rms(broyden)= 0.16615E+00
  rms(prec ) = 0.38784E+00
  weight for this iteration     100.00

 eigenvalues of (default mixing * dielectric matrix)
  average eigenvalue GAMMA=   1.2293
  2.5287  0.9770  0.1823

 Free energy of the ion-electron system (eV)
  ---------------------------------------------------
  alpha Z        PSCENC =      3636.37249970
  Ewald energy   TEWEN  =    -58102.50555495
  -1/2 Hartree   DENC   =    -14613.68265887
  -exchange  EXHF       =         0.00000000
  -V(xc)+E(xc)   XCENC  =      2213.82459400
  PAW double counting   =     64500.04601616   -63792.34267582
  entropy T*S    EENTRO =        -0.32405314
  eigenvalues    EBANDS =     -4763.91556740
  atomic energy  EATOM  =     70781.73722278
  ---------------------------------------------------
  free energy    TOTEN  =      -140.79017754 eV

  energy without entropy =     -140.46612440  energy(sigma->0) =     -140.62815097


--------------------------------------------------------------------------------------------------------




----------------------------------------- Iteration    1(   9)  ---------------------------------------


    POTLOK:  cpu time    2.27: real time    2.27
    SETDIJ:  cpu time    2.85: real time    2.85
     EDDAV:  cpu time 1102.76: real time 1102.86
       DOS:  cpu time    0.03: real time    0.03
    CHARGE:  cpu time   96.31: real time   96.32
    MIXING:  cpu time    0.05: real time    0.05
    --------------------------------------------
      LOOP:  cpu time 1204.28: real time 1204.39

 eigenvalue-minimisations  : 14560
 total energy-change (2. order) : 0.2554264E-01  (-0.5389798E-02)
 number of electron     432.0000011 magnetization 
 augmentation part      207.1527316 magnetization 

 Broyden mixing:
  rms(total) = 0.75450E-02    rms(broyden)= 0.75041E-02
  rms(prec ) = 0.11641E-01
  weight for this iteration     100.00

 eigenvalues of (default mixing * dielectric matrix)
  average eigenvalue GAMMA=   1.1148
  2.5288  0.9784  0.7720  0.1801

 Free energy of the ion-electron system (eV)
  ---------------------------------------------------
  alpha Z        PSCENC =      3636.37249970
  Ewald energy   TEWEN  =    -58102.50555495
  -1/2 Hartree   DENC   =    -14613.20932679
  -exchange  EXHF       =         0.00000000
  -V(xc)+E(xc)   XCENC  =      2213.80372727
  PAW double counting   =     64537.80478352   -63830.21123022
  entropy T*S    EENTRO =        -0.32676589
  eigenvalues    EBANDS =     -4764.22999033
  atomic energy  EATOM  =     70781.73722278
  ---------------------------------------------------
  free energy    TOTEN  =      -140.76463490 eV

  energy without entropy =     -140.43786901  energy(sigma->0) =     -140.60125196


--------------------------------------------------------------------------------------------------------




----------------------------------------- Iteration    1(  10)  ---------------------------------------


    POTLOK:  cpu time    2.27: real time    2.27
    SETDIJ:  cpu time    2.86: real time    2.86
     EDDAV:  cpu time 1103.76: real time 1103.86
       DOS:  cpu time    0.03: real time    0.03
    CHARGE:  cpu time   97.59: real time   97.59
    MIXING:  cpu time    0.05: real time    0.05
    --------------------------------------------
      LOOP:  cpu time 1206.57: real time 1206.75

 eigenvalue-minimisations  : 14464
 total energy-change (2. order) :-0.6513207E-04  (-0.3385081E-03)
 number of electron     432.0000011 magnetization 
 augmentation part      207.1537061 magnetization 

 Broyden mixing:
  rms(total) = 0.79017E-02    rms(broyden)= 0.79004E-02
  rms(prec ) = 0.14698E-01
  weight for this iteration     100.00

 eigenvalues of (default mixing * dielectric matrix)
  average eigenvalue GAMMA=   1.0111
  2.5259  1.0996  0.9724  0.1792  0.2782

 Free energy of the ion-electron system (eV)
  ---------------------------------------------------
  alpha Z        PSCENC =      3636.37249970
  Ewald energy   TEWEN  =    -58102.50555495
  -1/2 Hartree   DENC   =    -14613.57255062
  -exchange  EXHF       =         0.00000000
  -V(xc)+E(xc)   XCENC  =      2213.81958050
  PAW double counting   =     64546.10127309   -63837.85020566
  entropy T*S    EENTRO =        -0.32676635
  eigenvalues    EBANDS =     -4764.54019854
  atomic energy  EATOM  =     70781.73722278
  ---------------------------------------------------
  free energy    TOTEN  =      -140.76470004 eV

  energy without entropy =     -140.43793369  energy(sigma->0) =     -140.60131686


--------------------------------------------------------------------------------------------------------




----------------------------------------- Iteration    1(  11)  ---------------------------------------


    POTLOK:  cpu time    2.27: real time    2.27
    SETDIJ:  cpu time    2.83: real time    2.83
     EDDAV:  cpu time 1077.45: real time 1077.54
       DOS:  cpu time    0.03: real time    0.03
    CHARGE:  cpu time   96.38: real time   96.39
    MIXING:  cpu time    0.05: real time    0.05
    --------------------------------------------
      LOOP:  cpu time 1179.01: real time 1179.13

 eigenvalue-minimisations  : 14176
 total energy-change (2. order) : 0.4712518E-04  (-0.2272868E-04)
 number of electron     432.0000011 magnetization 
 augmentation part      207.1572199 magnetization 

 Broyden mixing:
  rms(total) = 0.53417E-02    rms(broyden)= 0.53414E-02
  rms(prec ) = 0.93635E-02
  weight for this iteration     100.00

 eigenvalues of (default mixing * dielectric matrix)
  average eigenvalue GAMMA=   0.9628
  2.5225  1.2726  0.9705  0.6109  0.1793  0.2212

 Free energy of the ion-electron system (eV)
  ---------------------------------------------------
  alpha Z        PSCENC =      3636.37249970
  Ewald energy   TEWEN  =    -58102.50555495
  -1/2 Hartree   DENC   =    -14613.98788874
  -exchange  EXHF       =         0.00000000
  -V(xc)+E(xc)   XCENC  =      2213.83787756
  PAW double counting   =     64554.02646964   -63845.12885121
  entropy T*S    EENTRO =        -0.32675983
  eigenvalues    EBANDS =     -4764.78966786
  atomic energy  EATOM  =     70781.73722278
  ---------------------------------------------------
  free energy    TOTEN  =      -140.76465291 eV

  energy without entropy =     -140.43789308  energy(sigma->0) =     -140.60127300


--------------------------------------------------------------------------------------------------------




----------------------------------------- Iteration    1(  12)  ---------------------------------------


    POTLOK:  cpu time    2.27: real time    2.27
    SETDIJ:  cpu time    2.85: real time    2.85
     EDDAV:  cpu time 1080.93: real time 1081.03
       DOS:  cpu time    0.03: real time    0.03
    CHARGE:  cpu time   96.11: real time   96.12
    MIXING:  cpu time    0.05: real time    0.05
    --------------------------------------------
      LOOP:  cpu time 1182.25: real time 1182.37

 eigenvalue-minimisations  : 14240
 total energy-change (2. order) : 0.1763094E-04  (-0.7894857E-05)
 number of electron     432.0000011 magnetization 
 augmentation part      207.1584439 magnetization 

 Broyden mixing:
  rms(total) = 0.43525E-02    rms(broyden)= 0.43524E-02
  rms(prec ) = 0.77344E-02
  weight for this iteration     100.00

 eigenvalues of (default mixing * dielectric matrix)
  average eigenvalue GAMMA=   0.9730
  2.5175  1.6493  0.9859  0.9859  0.3125  0.1802  0.1802

 Free energy of the ion-electron system (eV)
  ---------------------------------------------------
  alpha Z        PSCENC =      3636.37249970
  Ewald energy   TEWEN  =    -58102.50555495
  -1/2 Hartree   DENC   =    -14614.34029617
  -exchange  EXHF       =         0.00000000
  -V(xc)+E(xc)   XCENC  =      2213.85345994
  PAW double counting   =     64559.38195258   -63850.08537798
  entropy T*S    EENTRO =        -0.32675394
  eigenvalues    EBANDS =     -4764.85178724
  atomic energy  EATOM  =     70781.73722278
  ---------------------------------------------------
  free energy    TOTEN  =      -140.76463528 eV

  energy without entropy =     -140.43788134  energy(sigma->0) =     -140.60125831


--------------------------------------------------------------------------------------------------------




----------------------------------------- Iteration    1(  13)  ---------------------------------------


    POTLOK:  cpu time    2.27: real time    2.27
    SETDIJ:  cpu time    2.83: real time    2.83
     EDDAV:  cpu time 1078.20: real time 1078.30
       DOS:  cpu time    0.03: real time    0.03
    CHARGE:  cpu time   95.82: real time   95.83
    MIXING:  cpu time    0.06: real time    0.06
    --------------------------------------------
      LOOP:  cpu time 1179.21: real time 1179.32

 eigenvalue-minimisations  : 14168
 total energy-change (2. order) : 0.3337307E-04  (-0.4543022E-05)
 number of electron     432.0000011 magnetization 
 augmentation part      207.1586657 magnetization 

 Broyden mixing:
  rms(total) = 0.22889E-02    rms(broyden)= 0.22888E-02
  rms(prec ) = 0.41182E-02
  weight for this iteration     100.00

 eigenvalues of (default mixing * dielectric matrix)
  average eigenvalue GAMMA=   1.0336
  2.5226  2.3599  1.0687  0.9949  0.7055  0.2594  0.1791  0.1791

 Free energy of the ion-electron system (eV)
  ---------------------------------------------------
  alpha Z        PSCENC =      3636.37249970
  Ewald energy   TEWEN  =    -58102.50555495
  -1/2 Hartree   DENC   =    -14615.03978689
  -exchange  EXHF       =         0.00000000
  -V(xc)+E(xc)   XCENC  =      2213.88439244
  PAW double counting   =     64569.12158221   -63859.16455561
  entropy T*S    EENTRO =        -0.32674040
  eigenvalues    EBANDS =     -4764.84366119
  atomic energy  EATOM  =     70781.73722278
  ---------------------------------------------------
  free energy    TOTEN  =      -140.76460191 eV

  energy without entropy =     -140.43786151  energy(sigma->0) =     -140.60123171


--------------------------------------------------------------------------------------------------------




----------------------------------------- Iteration    1(  14)  ---------------------------------------


    POTLOK:  cpu time    2.27: real time    2.28
    SETDIJ:  cpu time    2.82: real time    2.82
     EDDAV:  cpu time 1075.56: real time 1075.66
       DOS:  cpu time    0.03: real time    0.03
    CHARGE:  cpu time   96.05: real time   96.06
    MIXING:  cpu time    0.06: real time    0.06
    --------------------------------------------
      LOOP:  cpu time 1176.80: real time 1176.91

 eigenvalue-minimisations  : 14104
 total energy-change (2. order) : 0.1996283E-04  (-0.2895931E-05)
 number of electron     432.0000011 magnetization 
 augmentation part      207.1579703 magnetization 

 Broyden mixing:
  rms(total) = 0.18999E-02    rms(broyden)= 0.18998E-02
  rms(prec ) = 0.37406E-02
  weight for this iteration     100.00

 eigenvalues of (default mixing * dielectric matrix)
  average eigenvalue GAMMA=   0.9854
  2.5898  2.4886  1.0961  0.9903  0.7889  0.3052  0.2519  0.1802  0.1775

 Free energy of the ion-electron system (eV)
  ---------------------------------------------------
  alpha Z        PSCENC =      3636.37249970
  Ewald energy   TEWEN  =    -58102.50555495
  -1/2 Hartree   DENC   =    -14615.55942817
  -exchange  EXHF       =         0.00000000
  -V(xc)+E(xc)   XCENC  =      2213.90732758
  PAW double counting   =     64576.56264809   -63866.16803508
  entropy T*S    EENTRO =        -0.32672986
  eigenvalues    EBANDS =     -4764.78453204
  atomic energy  EATOM  =     70781.73722278
  ---------------------------------------------------
  free energy    TOTEN  =      -140.76458194 eV

  energy without entropy =     -140.43785208  energy(sigma->0) =     -140.60121701


--------------------------------------------------------------------------------------------------------




----------------------------------------- Iteration    1(  15)  ---------------------------------------


    POTLOK:  cpu time    2.27: real time    2.27
    SETDIJ:  cpu time    2.82: real time    2.82
     EDDAV:  cpu time 1084.43: real time 1084.53
       DOS:  cpu time    0.03: real time    0.03
    CHARGE:  cpu time   97.26: real time   97.27
    MIXING:  cpu time    0.06: real time    0.06
    --------------------------------------------
      LOOP:  cpu time 1186.88: real time 1186.99

 eigenvalue-minimisations  : 14112
 total energy-change (2. order) : 0.1145917E-04  (-0.1073469E-05)
 number of electron     432.0000011 magnetization 
 augmentation part      207.1576538 magnetization 

 Broyden mixing:
  rms(total) = 0.46543E-03    rms(broyden)= 0.46529E-03
  rms(prec ) = 0.10067E-02
  weight for this iteration     100.00

 eigenvalues of (default mixing * dielectric matrix)
  average eigenvalue GAMMA=   0.9190
  2.5909  2.4876  1.1135  0.9876  0.7750  0.3432  0.1787  0.1787  0.2795  0.2555

 Free energy of the ion-electron system (eV)
  ---------------------------------------------------
  alpha Z        PSCENC =      3636.37249970
  Ewald energy   TEWEN  =    -58102.50555495
  -1/2 Hartree   DENC   =    -14615.72199161
  -exchange  EXHF       =         0.00000000
  -V(xc)+E(xc)   XCENC  =      2213.91450576
  PAW double counting   =     64578.96604030   -63868.44153976
  entropy T*S    EENTRO =        -0.32672616
  eigenvalues    EBANDS =     -4764.75902654
  atomic energy  EATOM  =     70781.73722278
  ---------------------------------------------------
  free energy    TOTEN  =      -140.76457049 eV

  energy without entropy =     -140.43784432  energy(sigma->0) =     -140.60120740


--------------------------------------------------------------------------------------------------------




----------------------------------------- Iteration    1(  16)  ---------------------------------------


    POTLOK:  cpu time    2.27: real time    2.27
    SETDIJ:  cpu time    2.85: real time    2.85
     EDDAV:  cpu time 1188.67: real time 1188.77
       DOS:  cpu time    0.03: real time    0.03
    CHARGE:  cpu time   95.28: real time   95.29
    MIXING:  cpu time    0.06: real time    0.06
    --------------------------------------------
      LOOP:  cpu time 1289.16: real time 1289.28

 eigenvalue-minimisations  : 16392
 total energy-change (2. order) :-0.3664172E-07  (-0.1672185E-06)
 number of electron     432.0000011 magnetization 
 augmentation part      207.1576363 magnetization 

 Broyden mixing:
  rms(total) = 0.25740E-03    rms(broyden)= 0.25728E-03
  rms(prec ) = 0.49344E-03
  weight for this iteration     100.00

 eigenvalues of (default mixing * dielectric matrix)
  average eigenvalue GAMMA=   0.9628
  2.5863  2.4621  1.6525  0.9461  0.9461  0.9001  0.3032  0.2532  0.1781  0.1794
  0.1837

 Free energy of the ion-electron system (eV)
  ---------------------------------------------------
  alpha Z        PSCENC =      3636.37249970
  Ewald energy   TEWEN  =    -58102.50555495
  -1/2 Hartree   DENC   =    -14615.72015090
  -exchange  EXHF       =         0.00000000
  -V(xc)+E(xc)   XCENC  =      2213.91443315
  PAW double counting   =     64578.92884958   -63868.40647345
  entropy T*S    EENTRO =        -0.32672622
  eigenvalues    EBANDS =     -4764.75867022
  atomic energy  EATOM  =     70781.73722278
  ---------------------------------------------------
  free energy    TOTEN  =      -140.76457052 eV

  energy without entropy =     -140.43784430  energy(sigma->0) =     -140.60120741


--------------------------------------------------------------------------------------------------------




----------------------------------------- Iteration    1(  17)  ---------------------------------------


    POTLOK:  cpu time    2.28: real time    2.28
    SETDIJ:  cpu time    2.86: real time    2.86
     EDDAV:  cpu time 1072.30: real time 1072.40
       DOS:  cpu time    0.04: real time    0.04
    CHARGE:  cpu time   96.47: real time   96.48
    MIXING:  cpu time    0.07: real time    0.07
    --------------------------------------------
      LOOP:  cpu time 1174.02: real time 1174.14

 eigenvalue-minimisations  : 14136
 total energy-change (2. order) :-0.1170964E-05  (-0.3543828E-07)
 number of electron     432.0000011 magnetization 
 augmentation part      207.1576544 magnetization 

 Broyden mixing:
  rms(total) = 0.18219E-03    rms(broyden)= 0.18205E-03
  rms(prec ) = 0.37063E-03
  weight for this iteration     100.00

 eigenvalues of (default mixing * dielectric matrix)
  average eigenvalue GAMMA=   0.9319
  2.5861  2.4459  1.9113  0.9689  0.9689  0.8747  0.3327  0.3023  0.2545  0.1775
  0.1801  0.1801

 Free energy of the ion-electron system (eV)
  ---------------------------------------------------
  alpha Z        PSCENC =      3636.37249970
  Ewald energy   TEWEN  =    -58102.50555495
  -1/2 Hartree   DENC   =    -14615.69619824
  -exchange  EXHF       =         0.00000000
  -V(xc)+E(xc)   XCENC  =      2213.91342922
  PAW double counting   =     64578.54485277   -63868.04321548
  entropy T*S    EENTRO =        -0.32672594
  eigenvalues    EBANDS =     -4764.76088157
  atomic energy  EATOM  =     70781.73722278
  ---------------------------------------------------
  free energy    TOTEN  =      -140.76457169 eV

  energy without entropy =     -140.43784575  energy(sigma->0) =     -140.60120872


--------------------------------------------------------------------------------------------------------




----------------------------------------- Iteration    1(  18)  ---------------------------------------


    POTLOK:  cpu time    2.27: real time    2.27
    SETDIJ:  cpu time    2.86: real time    2.86
     EDDAV:  cpu time 1031.74: real time 1031.83
       DOS:  cpu time    0.03: real time    0.04
    CHARGE:  cpu time   96.53: real time   96.53
    MIXING:  cpu time    0.06: real time    0.07
    --------------------------------------------
      LOOP:  cpu time 1133.50: real time 1133.62

 eigenvalue-minimisations  : 13464
 total energy-change (2. order) :-0.2307352E-06  (-0.1181196E-07)
 number of electron     432.0000011 magnetization 
 augmentation part      207.1576638 magnetization 

 Broyden mixing:
  rms(total) = 0.66273E-04    rms(broyden)= 0.65904E-04
  rms(prec ) = 0.10429E-03
  weight for this iteration     100.00

 eigenvalues of (default mixing * dielectric matrix)
  average eigenvalue GAMMA=   0.9600
  2.6088  2.4634  2.1067  1.0594  1.0594  1.0042  0.8260  0.3039  0.2596  0.2523
  0.1802  0.1782  0.1782

 Free energy of the ion-electron system (eV)
  ---------------------------------------------------
  alpha Z        PSCENC =      3636.37249970
  Ewald energy   TEWEN  =    -58102.50555495
  -1/2 Hartree   DENC   =    -14615.68986032
  -exchange  EXHF       =         0.00000000
  -V(xc)+E(xc)   XCENC  =      2213.91316428
  PAW double counting   =     64578.43119933   -63867.93466201
  entropy T*S    EENTRO =        -0.32672585
  eigenvalues    EBANDS =     -4764.76185488
  atomic energy  EATOM  =     70781.73722278
  ---------------------------------------------------
  free energy    TOTEN  =      -140.76457192 eV

  energy without entropy =     -140.43784607  energy(sigma->0) =     -140.60120900


--------------------------------------------------------------------------------------------------------




----------------------------------------- Iteration    1(  19)  ---------------------------------------


    POTLOK:  cpu time    2.28: real time    2.28
    SETDIJ:  cpu time    2.86: real time    2.86
     EDDAV:  cpu time  724.91: real time  724.98
       DOS:  cpu time    0.03: real time    0.03
    CHARGE:  cpu time   95.19: real time   95.19
    MIXING:  cpu time    0.07: real time    0.07
    --------------------------------------------
      LOOP:  cpu time  825.35: real time  825.44

 eigenvalue-minimisations  :  7824
 total energy-change (2. order) :-0.2177403E-06  (-0.2229708E-08)
 number of electron     432.0000011 magnetization 
 augmentation part      207.1576848 magnetization 

 Broyden mixing:
  rms(total) = 0.61774E-04    rms(broyden)= 0.61385E-04
  rms(prec ) = 0.12423E-03
  weight for this iteration     100.00

 eigenvalues of (default mixing * dielectric matrix)
  average eigenvalue GAMMA=   0.9338
  2.6158  2.4686  2.1912  1.2356  1.0092  1.0092  0.8273  0.3688  0.3033  0.2575
  0.2495  0.1779  0.1795  0.1795

 Free energy of the ion-electron system (eV)
  ---------------------------------------------------
  alpha Z        PSCENC =      3636.37249970
  Ewald energy   TEWEN  =    -58102.50555495
  -1/2 Hartree   DENC   =    -14615.68202847
  -exchange  EXHF       =         0.00000000
  -V(xc)+E(xc)   XCENC  =      2213.91283921
  PAW double counting   =     64578.25300908   -63867.76183691
  entropy T*S    EENTRO =        -0.32672578
  eigenvalues    EBANDS =     -4764.76399680
  atomic energy  EATOM  =     70781.73722278
  ---------------------------------------------------
  free energy    TOTEN  =      -140.76457214 eV

  energy without entropy =     -140.43784636  energy(sigma->0) =     -140.60120925


--------------------------------------------------------------------------------------------------------




----------------------------------------- Iteration    1(  20)  ---------------------------------------


    POTLOK:  cpu time    2.27: real time    2.27
    SETDIJ:  cpu time    2.84: real time    2.84
     EDDAV:  cpu time  704.07: real time  704.13
       DOS:  cpu time    0.03: real time    0.04
    CHARGE:  cpu time   96.46: real time   96.46
    MIXING:  cpu time    0.07: real time    0.07
    --------------------------------------------
      LOOP:  cpu time  805.75: real time  805.83

 eigenvalue-minimisations  :  7296
 total energy-change (2. order) :-0.9378709E-07  (-0.1197908E-08)
 number of electron     432.0000011 magnetization 
 augmentation part      207.1576914 magnetization 

 Broyden mixing:
  rms(total) = 0.37277E-04    rms(broyden)= 0.36628E-04
  rms(prec ) = 0.73698E-04
  weight for this iteration     100.00

 eigenvalues of (default mixing * dielectric matrix)
  average eigenvalue GAMMA=   0.9420
  2.6171  2.4611  2.4408  1.4522  0.9986  0.9986  0.8004  0.8004  0.3038  0.2625
  0.2520  0.1799  0.1783  0.1783  0.2061

 Free energy of the ion-electron system (eV)
  ---------------------------------------------------
  alpha Z        PSCENC =      3636.37249970
  Ewald energy   TEWEN  =    -58102.50555495
  -1/2 Hartree   DENC   =    -14615.67927415
  -exchange  EXHF       =         0.00000000
  -V(xc)+E(xc)   XCENC  =      2213.91272376
  PAW double counting   =     64578.18952631   -63867.70041369
  entropy T*S    EENTRO =        -0.32672578
  eigenvalues    EBANDS =     -4764.76457622
  atomic energy  EATOM  =     70781.73722278
  ---------------------------------------------------
  free energy    TOTEN  =      -140.76457223 eV

  energy without entropy =     -140.43784646  energy(sigma->0) =     -140.60120935


--------------------------------------------------------------------------------------------------------




----------------------------------------- Iteration    1(  21)  ---------------------------------------


    POTLOK:  cpu time    2.27: real time    2.28
    SETDIJ:  cpu time    2.81: real time    2.81
     EDDAV:  cpu time  689.03: real time  689.09
       DOS:  cpu time    0.03: real time    0.03
    CHARGE:  cpu time   95.13: real time   95.14
    MIXING:  cpu time    0.07: real time    0.07
    --------------------------------------------
      LOOP:  cpu time  789.35: real time  789.43

 eigenvalue-minimisations  :  7128
 total energy-change (2. order) :-0.1371081E-06  (-0.6094779E-09)
 number of electron     432.0000011 magnetization 
 augmentation part      207.1576961 magnetization 

 Broyden mixing:
  rms(total) = 0.30344E-04    rms(broyden)= 0.29544E-04
  rms(prec ) = 0.58552E-04
  weight for this iteration     100.00

 eigenvalues of (default mixing * dielectric matrix)
  average eigenvalue GAMMA=   0.9396
  2.7248  2.6329  2.4720  1.6034  0.9848  0.9848  0.9184  0.8681  0.3162  0.3023
  0.2559  0.2511  0.1782  0.1782  0.1800  0.1828

 Free energy of the ion-electron system (eV)
  ---------------------------------------------------
  alpha Z        PSCENC =      3636.37249970
  Ewald energy   TEWEN  =    -58102.50555495
  -1/2 Hartree   DENC   =    -14615.67608683
  -exchange  EXHF       =         0.00000000
  -V(xc)+E(xc)   XCENC  =      2213.91258920
  PAW double counting   =     64578.11478481   -63867.62824719
  entropy T*S    EENTRO =        -0.32672576
  eigenvalues    EBANDS =     -4764.76505414
  atomic energy  EATOM  =     70781.73722278
  ---------------------------------------------------
  free energy    TOTEN  =      -140.76457237 eV

  energy without entropy =     -140.43784661  energy(sigma->0) =     -140.60120949


--------------------------------------------------------------------------------------------------------




----------------------------------------- Iteration    1(  22)  ---------------------------------------


    POTLOK:  cpu time    2.28: real time    2.28
    SETDIJ:  cpu time    2.82: real time    2.82
     EDDAV:  cpu time  687.16: real time  687.25
       DOS:  cpu time    0.03: real time    0.03
    CHARGE:  cpu time   95.20: real time   95.20
    MIXING:  cpu time    0.07: real time    0.07
    --------------------------------------------
      LOOP:  cpu time  787.58: real time  787.69

 eigenvalue-minimisations  :  7112
 total energy-change (2. order) :-0.1371081E-06  (-0.2112110E-09)
 number of electron     432.0000011 magnetization 
 augmentation part      207.1576979 magnetization 

 Broyden mixing:
  rms(total) = 0.87315E-05    rms(broyden)= 0.53268E-05
  rms(prec ) = 0.77029E-05
  weight for this iteration     100.00
  WARNING: grid for Broyden might be to small

 eigenvalues of (default mixing * dielectric matrix)
  average eigenvalue GAMMA=   0.9530
  2.7773  2.6457  2.4702  1.6142  1.0471  1.0471  0.9496  0.9496  0.8603  0.3108
  0.3032  0.2571  0.2512  0.1781  0.1786  0.1797  0.1819

 Free energy of the ion-electron system (eV)
  ---------------------------------------------------
  alpha Z        PSCENC =      3636.37249970
  Ewald energy   TEWEN  =    -58102.50555495
  -1/2 Hartree   DENC   =    -14615.67306725
  -exchange  EXHF       =         0.00000000
  -V(xc)+E(xc)   XCENC  =      2213.91246155
  PAW double counting   =     64578.04041202   -63867.55639174
  entropy T*S    EENTRO =        -0.32672576
  eigenvalues    EBANDS =     -4764.76542885
  atomic energy  EATOM  =     70781.73722278
  ---------------------------------------------------
  free energy    TOTEN  =      -140.76457251 eV

  energy without entropy =     -140.43784675  energy(sigma->0) =     -140.60120963


--------------------------------------------------------------------------------------------------------




----------------------------------------- Iteration    1(  23)  ---------------------------------------


    POTLOK:  cpu time    2.28: real time    2.28
    SETDIJ:  cpu time    2.81: real time    2.81
     EDDAV:  cpu time  688.36: real time  688.42
       DOS:  cpu time    0.03: real time    0.03
    CHARGE:  cpu time   95.13: real time   95.13
    MIXING:  cpu time    0.08: real time    0.08
    --------------------------------------------
      LOOP:  cpu time  788.68: real time  788.76

 eigenvalue-minimisations  :  7112
 total energy-change (2. order) :-0.1276203E-07  (-0.4678275E-10)
 number of electron     432.0000011 magnetization 
 augmentation part      207.1576970 magnetization 

 Broyden mixing:
  rms(total) = 0.98993E-05    rms(broyden)= 0.70811E-05
  rms(prec ) = 0.15284E-04
  weight for this iteration     100.00
  WARNING: grid for Broyden might be to small

 eigenvalues of (default mixing * dielectric matrix)
  average eigenvalue GAMMA=   0.9226
  2.7978  2.6489  2.4690  1.6303  1.1132  1.1132  0.9513  0.9513  0.8637  0.3110
  0.3033  0.2566  0.2507  0.2286  0.1780  0.1787  0.1797  0.1818

 Free energy of the ion-electron system (eV)
  ---------------------------------------------------
  alpha Z        PSCENC =      3636.37249970
  Ewald energy   TEWEN  =    -58102.50555495
  -1/2 Hartree   DENC   =    -14615.67313473
  -exchange  EXHF       =         0.00000000
  -V(xc)+E(xc)   XCENC  =      2213.91246418
  PAW double counting   =     64578.03647616   -63867.55248819
  entropy T*S    EENTRO =        -0.32672576
  eigenvalues    EBANDS =     -4764.76533171
  atomic energy  EATOM  =     70781.73722278
  ---------------------------------------------------
  free energy    TOTEN  =      -140.76457252 eV

  energy without entropy =     -140.43784676  energy(sigma->0) =     -140.60120964


--------------------------------------------------------------------------------------------------------




----------------------------------------- Iteration    1(  24)  ---------------------------------------


    POTLOK:  cpu time    2.28: real time    2.28
    SETDIJ:  cpu time    2.82: real time    2.82
     EDDAV:  cpu time  686.80: real time  686.86
       DOS:  cpu time    0.03: real time    0.03
    --------------------------------------------
      LOOP:  cpu time  691.94: real time  692.03

 eigenvalue-minimisations  :  7100
 total energy-change (2. order) :-0.3856258E-08  (-0.1840865E-10)
 number of electron     432.0000011 magnetization 
 augmentation part      207.1576970 magnetization 

 Free energy of the ion-electron system (eV)
  ---------------------------------------------------
  alpha Z        PSCENC =      3636.37249970
  Ewald energy   TEWEN  =    -58102.50555495
  -1/2 Hartree   DENC   =    -14615.67320980
  -exchange  EXHF       =         0.00000000
  -V(xc)+E(xc)   XCENC  =      2213.91246729
  PAW double counting   =     64578.03558635   -63867.55157874
  entropy T*S    EENTRO =        -0.32672576
  eigenvalues    EBANDS =     -4764.76527941
  atomic energy  EATOM  =     70781.73722278
  ---------------------------------------------------
  free energy    TOTEN  =      -140.76457253 eV

  energy without entropy =     -140.43784677  energy(sigma->0) =     -140.60120965


--------------------------------------------------------------------------------------------------------




 average (electrostatic) potential at core
  the test charge radii are     1.0504
  (the norm of the test charge is              1.0000)
       1 -74.7032       2 -74.7051       3 -74.7012       4 -74.7041       5 -74.7031
       6 -74.7021       7 -74.7021       8 -74.7041       9 -74.7031      10 -74.7041
      11 -74.7031      12 -74.7021      13 -74.7032      14 -74.7031      15 -74.7031
      16 -74.7031      17 -74.7030      18 -74.7032      19 -74.7021      20 -74.7041
      21 -74.7031      22 -74.7031      23 -74.7030      24 -74.7032      25 -74.7031
      26 -74.7031      27 -74.7032
 
 
 
 E-fermi :   9.1940     XC(G=0): -13.1986     alpha+bet :-16.1055


 k-point   1 :       0.1923    0.2692    0.2788
  band No.  band energies     occupation 
      1     -40.7457      2.00000
      2     -40.7141      2.00000
      3     -40.7127      2.00000
      4     -40.7075      2.00000
      5     -40.6977      2.00000
      6     -40.6973      2.00000
      7     -40.6964      2.00000
      8     -40.6951      2.00000
      9     -40.6939      2.00000
     10     -40.6933      2.00000
     11     -40.6929      2.00000
     12     -40.6902      2.00000
     13     -40.6819      2.00000
     14     -40.6814      2.00000
     15     -40.6771      2.00000
     16     -40.6757      2.00000
     17     -40.6750      2.00000
     18     -40.6725      2.00000
     19     -40.6716      2.00000
     20     -40.6711      2.00000
     21     -40.6457      2.00000
     22     -40.6390      2.00000
     23     -40.6373      2.00000
     24     -40.6359      2.00000
     25     -40.6263      2.00000
     26     -40.6229      2.00000
     27     -40.6176      2.00000
     28     -40.6143      2.00000
     29     -40.6106      2.00000
     30     -40.6083      2.00000
     31     -40.6062      2.00000
     32     -40.6016      2.00000
     33     -40.5991      2.00000
     34     -40.5986      2.00000
     35     -40.5890      2.00000
     36     -40.5881      2.00000
     37     -40.5874      2.00000
     38     -40.5807      2.00000
     39     -40.5273      2.00000
     40     -40.5238      2.00000
     41     -40.5235      2.00000
     42     -40.5207      2.00000
     43     -40.5121      2.00000
     44     -40.5119      2.00000
     45     -40.5089      2.00000
     46     -40.5087      2.00000
     47     -40.5064      2.00000
     48     -40.5059      2.00000
     49     -40.5025      2.00000
     50     -40.4961      2.00000
     51     -40.4956      2.00000
     52     -40.4954      2.00000
     53     -40.4937      2.00000
     54     -40.4928      2.00000
     55     -40.4917      2.00000
     56     -40.4865      2.00000
     57     -40.4856      2.00000
     58     -40.4797      2.00000
     59     -40.4773      2.00000
     60     -40.4744      2.00000
     61     -40.4714      2.00000
     62     -40.4671      2.00000
     63     -40.4669      2.00000
     64     -40.4647      2.00000
     65     -40.4647      2.00000
     66     -40.4525      2.00000
     67     -40.4516      2.00000
     68     -40.4504      2.00000
     69     -40.4485      2.00000
     70     -40.4462      2.00000
     71     -40.4457      2.00000
     72     -40.4438      2.00000
     73     -40.4408      2.00000
     74     -40.4363      2.00000
     75     -40.4353      2.00000
     76     -40.4343      2.00000
     77     -40.4292      2.00000
     78     -40.4244      2.00000
     79     -40.4223      2.00000
     80     -40.4046      2.00000
     81     -40.3991      2.00000
     82       2.5013      2.00000
     83       3.9335      2.00000
     84       4.1537      2.00000
     85       4.2830      2.00000
     86       4.3047      2.00000
     87       4.3123      2.00000
     88       4.3323      2.00000
     89       4.3458      2.00000
     90       4.3794      2.00000
     91       4.4073      2.00000
     92       4.4830      2.00000
     93       4.4999      2.00000
     94       4.5498      2.00000
     95       4.5882      2.00000
     96       4.6397      2.00000
     97       4.6559      2.00000
     98       4.6847      2.00000
     99       4.6850      2.00000
    100       4.7163      2.00000
    101       4.7390      2.00000
    102       4.7581      2.00000
    103       5.0188      2.00000
    104       5.0380      2.00000
    105       5.0506      2.00000
    106       5.0532      2.00000
    107       5.0628      2.00000
    108       5.0721      2.00000
    109       5.1201      2.00000
    110       5.1635      2.00000
    111       5.1681      2.00000
    112       5.1935      2.00000
    113       5.2575      2.00000
    114       5.2607      2.00000
    115       5.2984      2.00000
    116       5.3161      2.00000
    117       5.3901      2.00000
    118       5.5596      2.00000
    119       5.5764      2.00000
    120       5.6568      2.00000
    121       5.6723      2.00000
    122       5.7113      2.00000
    123       5.7132      2.00000
    124       5.8571      2.00000
    125       5.9091      2.00000
    126       5.9249      2.00000
    127       6.3099      2.00000
    128       6.3282      2.00000
    129       6.3448      2.00000
    130       6.3698      2.00000
    131       6.3750      2.00000
    132       6.4106      2.00000
    133       6.4580      2.00000
    134       6.4583      2.00000
    135       6.4650      2.00000
    136       6.4829      2.00000
    137       6.5045      2.00000
    138       6.5047      2.00000
    139       6.5068      2.00000
    140       6.5109      2.00000
    141       6.5603      2.00000
    142       6.5614      2.00000
    143       6.5681      2.00000
    144       6.5973      2.00000
    145       6.6038      2.00000
    146       6.6205      2.00000
    147       6.6481      2.00000
    148       6.6520      2.00000
    149       6.6584      2.00000
    150       6.6613      2.00000
    151       6.6723      2.00000
    152       6.7529      2.00000
    153       6.7619      2.00000
    154       6.7649      2.00000
    155       6.8134      2.00000
    156       6.8310      2.00000
    157       6.8402      2.00000
    158       6.8407      2.00000
    159       7.0624      2.00000
    160       7.0801      2.00000
    161       7.2902      2.00000
    162       7.2941      2.00000
    163       7.2981      2.00000
    164       7.3081      2.00000
    165       7.3346      2.00000
    166       7.4096      2.00000
    167       7.4877      2.00000
    168       7.4901      2.00000
    169       7.5465      2.00000
    170       7.6277      2.00000
    171       7.6929      2.00000
    172       7.7198      2.00000
    173       7.7539      2.00000
    174       7.7774      2.00000
    175       7.8206      2.00000
    176       7.9261      2.00000
    177       7.9299      2.00000
    178       7.9320      2.00000
    179       7.9733      2.00000
    180       7.9821      2.00000
    181       7.9867      2.00000
    182       7.9912      2.00000
    183       8.0225      2.00000
    184       8.0234      2.00000
    185       8.0609      2.00000
    186       8.2390      2.00000
    187       8.2683      2.00000
    188       8.2950      2.00000
    189       8.3019      2.00000
    190       8.3536      2.00000
    191       8.3778      2.00000
    192       8.3780      2.00000
    193       8.4104      2.00000
    194       8.4422      2.00000
    195       8.4781      2.00000
    196       8.5317      2.00000
    197       8.6295      2.00000
    198       8.6361      2.00000
    199       8.6547      2.00000
    200       8.6606      2.00000
    201       8.6693      2.00000
    202       8.7092      2.00000
    203       8.7382      2.00000
    204       8.7401      2.00000
    205       8.7558      2.00000
    206       8.7943      2.00000
    207       8.7995      2.00000
    208       8.8239      2.00000
    209       8.8366      2.00000
    210       8.8490      2.00000
    211       8.9266      1.99984
    212       8.9459      1.99955
    213       9.0190      1.98668
    214       9.0262      1.98233
    215       9.0301      1.97955
    216       9.0487      1.96010
    217       9.0908      1.85553
    218       9.0971      1.82955
    219       9.1031      1.80113
    220       9.1109      1.76007
    221       9.1130      1.74774
    222       9.1834      1.11919
    223       9.1881      1.06610
    224       9.2423      0.49479
    225       9.5172      0.00000
    226       9.5212      0.00000
    227       9.7736      0.00000
    228       9.8022      0.00000
    229      10.5668      0.00000
    230      10.6242      0.00000
    231      10.9261      0.00000
    232      12.9499      0.00000
    233      13.0222      0.00000
    234      13.5523      0.00000
    235      14.5853      0.00000
    236      14.6762      0.00000
    237      15.0384      0.00000
    238      15.1706      0.00000
    239      15.2409      0.00000
    240      15.6163      0.00000
    241      15.6265      0.00000
    242      15.9345      0.00000
    243      15.9855      0.00000
    244      16.7760      0.00000
    245      16.8583      0.00000
    246      17.0117      0.00000
    247      17.0264      0.00000
    248      17.1607      0.00000
    249      17.4424      0.00000
    250      17.4996      0.00000
    251      17.7023      0.00000
    252      17.7980      0.00000
    253      18.0413      0.00000
    254      18.0871      0.00000
    255      19.0624      0.00000
    256      19.0921      0.00000
    257      19.2151      0.00000
    258      19.2581      0.00000
    259      20.1881      0.00000

 k-point   2 :       0.2692    0.5769    0.2404
  band No.  band energies     occupation 
      1     -40.7579      2.00000
      2     -40.7509      2.00000
      3     -40.7292      2.00000
      4     -40.7247      2.00000
      5     -40.7199      2.00000
      6     -40.7195      2.00000
      7     -40.7180      2.00000
      8     -40.7159      2.00000
      9     -40.7113      2.00000
     10     -40.7013      2.00000
     11     -40.6988      2.00000
     12     -40.6988      2.00000
     13     -40.6961      2.00000
     14     -40.6899      2.00000
     15     -40.6823      2.00000
     16     -40.6817      2.00000
     17     -40.6701      2.00000
     18     -40.6684      2.00000
     19     -40.6663      2.00000
     20     -40.6616      2.00000
     21     -40.6611      2.00000
     22     -40.6601      2.00000
     23     -40.6302      2.00000
     24     -40.6224      2.00000
     25     -40.6027      2.00000
     26     -40.5895      2.00000
     27     -40.5844      2.00000
     28     -40.5790      2.00000
     29     -40.5776      2.00000
     30     -40.5703      2.00000
     31     -40.5675      2.00000
     32     -40.5523      2.00000
     33     -40.5512      2.00000
     34     -40.5504      2.00000
     35     -40.5480      2.00000
     36     -40.5466      2.00000
     37     -40.5404      2.00000
     38     -40.5377      2.00000
     39     -40.5356      2.00000
     40     -40.5315      2.00000
     41     -40.5298      2.00000
     42     -40.5294      2.00000
     43     -40.5289      2.00000
[...]
x     0.0135   -0.0001   -0.0000   -0.0000   -0.0000   -0.0000    0.0013   -0.0000   -0.0000   -0.0000
x    -0.0000   -0.0000   -0.0000    0.0000    0.0000    0.0000    0.0000    0.0000   -0.0000    0.0000
x     0.0000    0.0000    0.0000   -0.0000    0.0000   -0.0000   -0.0000    0.0000   -0.0000    0.0000
x     0.0000    0.0000    0.0000   -0.0000    0.0000    0.0000
y   224.8423    0.0000    0.0000   -0.0000   -0.0000    0.0000   57.7335   -0.0000    0.0000    0.0000
y    -0.0000   -0.0000   -6.9893   -0.0000   -0.0000    0.0000   -0.0000   -0.0000   -3.5119   -0.0000
y    -0.0000    0.0000   -0.0000   -0.0000   -0.2043    0.0000   -0.0000    0.0000   -0.0000   -0.0000
y     0.0135    0.0000    0.0000   -0.0000    0.0000    0.0000    0.0013   -0.0000    0.0000   -0.0000
y    -0.0000   -0.0000   -0.0000    0.0000   -0.0000    0.0000    0.0000    0.0000   -0.0000   -0.0000
y    -0.0000   -0.0000   -0.0000    0.0000   -0.0000    0.0000    0.0000    0.0000    0.0000   -0.0000
y    -0.0000    0.0000   -0.0000   -0.0000    0.0000    0.0000
z   224.8423    0.0000   -0.0000    0.0000   -0.0000   -0.0000   57.7365   -0.0000    0.0000   -0.0000
z    -0.0000   -0.0000   -6.9934    0.0000   -0.0000    0.0000   -0.0000   -0.0000   -3.5191    0.0000
z    -0.0000    0.0000   -0.0000   -0.0000   -0.2056    0.0000   -0.0000    0.0000   -0.0000   -0.0000
z     0.0136    0.0000    0.0000    0.0000    0.0000   -0.0000    0.0013    0.0000    0.0000    0.0000
z     0.0000    0.0000   -0.0000   -0.0000   -0.0000   -0.0000    0.0000    0.0000   -0.0000    0.0000
z    -0.0000    0.0000    0.0000   -0.0000   -0.0000    0.0000    0.0000   -0.0000    0.0000   -0.0000
z    -0.0000   -0.0000   -0.0000    0.0000    0.0000    0.0000
 total charge-density along one line
x   432.0000    0.0000   -0.0004   -0.1092   -0.0013   -0.1678  204.1352   -0.1711   -0.0022   -0.1457
x    -0.0020   -0.1038   38.7500   -0.0649   -0.0008   -0.0317   -0.0002   -0.0064   -1.5026    0.0038
x     0.0003    0.0064    0.0002    0.0062   -0.8681    0.0029    0.0000    0.0004   -0.0000   -0.0006
x     0.1476   -0.0006   -0.0000   -0.0001    0.0000    0.0002   -0.0524    0.0003    0.0000    0.0001
x    -0.0000   -0.0001    0.0241   -0.0001   -0.0000   -0.0001    0.0000    0.0000   -0.0116    0.0001
x     0.0000    0.0001   -0.0000   -0.0000    0.0057   -0.0000   -0.0000   -0.0000   -0.0000   -0.0000
x    -0.0028    0.0000    0.0000    0.0000    0.0000    0.0000    0.0013   -0.0000   -0.0000   -0.0000
x    -0.0000   -0.0000   -0.0005    0.0000    0.0000    0.0000    0.0000    0.0000    0.0001   -0.0000
x    -0.0000   -0.0000   -0.0000   -0.0000    0.0001   -0.0000    0.0000    0.0000    0.0000    0.0000
x    -0.0002    0.0000   -0.0000   -0.0000   -0.0000   -0.0000    0.0002   -0.0000    0.0000    0.0000
x     0.0000    0.0000   -0.0002    0.0000   -0.0000   -0.0000   -0.0000   -0.0000    0.0002   -0.0000
x     0.0000   -0.0000    0.0000    0.0000   -0.0001    0.0000   -0.0000    0.0000   -0.0000   -0.0000
x     0.0001   -0.0000    0.0000   -0.0000    0.0000    0.0000   -0.0001    0.0000   -0.0000    0.0000
y   432.0000    0.0000   -0.0000   -0.0000   -0.0000    0.0000  204.1530   -0.0000   -0.0000    0.0000
y    -0.0000   -0.0000   38.7714   -0.0000   -0.0000    0.0000   -0.0000   -0.0000   -1.4791    0.0000
y    -0.0000    0.0000   -0.0000   -0.0000   -0.8579    0.0000   -0.0000    0.0000   -0.0000   -0.0000
y     0.1482    0.0000    0.0000   -0.0000    0.0000    0.0000   -0.0526   -0.0000   -0.0000    0.0000
y    -0.0000   -0.0000    0.0242   -0.0000    0.0000    0.0000    0.0000    0.0000   -0.0116   -0.0000
y    -0.0000   -0.0000   -0.0000   -0.0000    0.0057    0.0000    0.0000    0.0000   -0.0000    0.0000
y    -0.0028    0.0000   -0.0000   -0.0000    0.0000   -0.0000    0.0013   -0.0000    0.0000    0.0000
y    -0.0000   -0.0000   -0.0005   -0.0000   -0.0000   -0.0000    0.0000    0.0000    0.0001    0.0000
y     0.0000    0.0000   -0.0000   -0.0000    0.0001    0.0000   -0.0000   -0.0000    0.0000    0.0000
y    -0.0002   -0.0000    0.0000    0.0000   -0.0000   -0.0000    0.0002   -0.0000   -0.0000   -0.0000
y     0.0000    0.0000   -0.0002   -0.0000    0.0000    0.0000   -0.0000   -0.0000    0.0002    0.0000
y     0.0000   -0.0000    0.0000    0.0000   -0.0001    0.0000   -0.0000   -0.0000   -0.0000   -0.0000
y     0.0001   -0.0000    0.0000    0.0000    0.0000    0.0000   -0.0001   -0.0000   -0.0000    0.0000
z   432.0000    0.0000   -0.0000    0.0000   -0.0000   -0.0000  204.1659   -0.0000   -0.0000    0.0000
z    -0.0000   -0.0000   38.7802   -0.0000   -0.0000    0.0000   -0.0000   -0.0000   -1.4877    0.0000
z    -0.0000    0.0000   -0.0000   -0.0000   -0.8642    0.0000   -0.0000    0.0000   -0.0000   -0.0000
z     0.1477    0.0000    0.0000   -0.0000    0.0000    0.0000   -0.0524   -0.0000   -0.0000    0.0000
z    -0.0000   -0.0000    0.0241   -0.0000    0.0000   -0.0000    0.0000    0.0000   -0.0116    0.0000
z    -0.0000    0.0000   -0.0000   -0.0000    0.0057    0.0000    0.0000    0.0000   -0.0000    0.0000
z    -0.0028    0.0000   -0.0000   -0.0000    0.0000   -0.0000    0.0013    0.0000    0.0000    0.0000
z    -0.0000   -0.0000   -0.0005    0.0000   -0.0000   -0.0000    0.0000    0.0000    0.0001   -0.0000
z     0.0000    0.0000   -0.0000   -0.0000    0.0001   -0.0000   -0.0000   -0.0000    0.0000    0.0000
z    -0.0002   -0.0000    0.0000    0.0000   -0.0000   -0.0000    0.0002   -0.0000   -0.0000   -0.0000
z     0.0000    0.0000   -0.0002   -0.0000    0.0000    0.0000   -0.0000   -0.0000    0.0002   -0.0000
z     0.0000   -0.0000    0.0000    0.0000   -0.0001   -0.0000   -0.0000    0.0000   -0.0000   -0.0000
z     0.0001   -0.0000    0.0000   -0.0000    0.0000    0.0000   -0.0001    0.0000   -0.0000    0.0000
 
 pseudopotential strength for first ion, spin component:           1
-37.307   0.000  -0.001   8.284  -0.000   0.001   0.000  -0.000
  0.000 -37.308   0.000  -0.000   8.285  -0.000   0.000  -0.000
 -0.001   0.000 -37.307   0.001  -0.000   8.284  -0.000   0.000
  8.284  -0.000   0.001   7.864   0.000  -0.000  -0.000   0.000
 -0.000   8.285  -0.000   0.000   7.864   0.000  -0.000   0.000
  0.001  -0.000   8.284  -0.000   0.000   7.864   0.000  -0.000
  0.000   0.000  -0.000  -0.000  -0.000   0.000  -2.350   0.000
 -0.000  -0.000   0.000   0.000   0.000  -0.000   0.000  -2.350
  0.000  -0.000  -0.000  -0.000   0.000   0.000   0.001   0.000
  0.000   0.000  -0.000  -0.000  -0.000   0.000  -0.000  -0.001
  0.000  -0.000   0.000  -0.000   0.000  -0.000  -0.000  -0.000
  0.000   0.000  -0.000  -0.000  -0.000   0.000  -2.006   0.000
 -0.000  -0.000   0.000   0.000   0.000  -0.000   0.000  -2.006
  0.000  -0.000  -0.000  -0.000   0.000   0.000   0.001   0.000
  0.000   0.000  -0.000  -0.000  -0.000   0.000  -0.000  -0.001
  0.000  -0.000   0.000  -0.000   0.000  -0.000  -0.000  -0.000
  0.000   0.000  -0.000   0.000   0.000   0.000   0.000  -0.000
  0.001   0.000  -0.000   0.000   0.000   0.000   0.001  -0.000
 total augmentation occupancy for first ion, spin component:           1
  1.998  -0.000  -0.000  -0.014  -0.000  -0.000   0.000   0.000  -0.000   0.000  -0.000  -0.000  -0.000   0.000  -0.000   0.000
 -0.000   1.998   0.000  -0.000  -0.014   0.000   0.000   0.000   0.000   0.000  -0.000   0.000  -0.000  -0.000  -0.000  -0.000
 -0.000   0.000   1.998  -0.000   0.000  -0.014   0.000   0.000  -0.000   0.000   0.000  -0.000   0.000   0.000  -0.000  -0.000
 -0.014  -0.000  -0.000   0.102   0.000  -0.000  -0.000   0.002  -0.001   0.000  -0.001  -0.000  -0.001   0.000   0.000   0.001
 -0.000  -0.014   0.000   0.000   0.102  -0.000  -0.000   0.002   0.001  -0.000  -0.000  -0.000  -0.001  -0.001  -0.000   0.000
 -0.000   0.000  -0.014  -0.000  -0.000   0.102   0.002  -0.000  -0.000   0.002  -0.000  -0.001  -0.000  -0.000  -0.001   0.000
  0.000   0.000   0.000  -0.000  -0.000   0.002   2.734   0.000   0.000  -0.000  -0.000  -0.719   0.000  -0.000  -0.000  -0.000
  0.000   0.000   0.000   0.002   0.002  -0.000   0.000   2.734   0.000  -0.000   0.000   0.000  -0.719   0.000   0.000   0.000
 -0.000   0.000  -0.000  -0.001   0.001  -0.000   0.000   0.000   2.512   0.000   0.000  -0.000   0.000  -0.532  -0.000  -0.000
  0.000   0.000   0.000   0.000  -0.000   0.002  -0.000  -0.000   0.000   2.734   0.000  -0.000   0.000  -0.000  -0.719  -0.000
 -0.000  -0.000   0.000  -0.001  -0.000  -0.000  -0.000   0.000   0.000   0.000   2.513  -0.000   0.000  -0.000  -0.000  -0.532
 -0.000   0.000  -0.000  -0.000  -0.000  -0.001  -0.719   0.000  -0.000  -0.000  -0.000   0.459   0.001   0.000  -0.000  -0.001
 -0.000  -0.000   0.000  -0.001  -0.001  -0.000   0.000  -0.719   0.000   0.000   0.000   0.001   0.459   0.001  -0.000  -0.000
  0.000  -0.000   0.000   0.000  -0.001  -0.000  -0.000   0.000  -0.532  -0.000  -0.000   0.000   0.001   0.418  -0.000  -0.000
 -0.000  -0.000  -0.000   0.000  -0.000  -0.001  -0.000   0.000  -0.000  -0.719  -0.000  -0.000  -0.000  -0.000   0.457  -0.000
  0.000  -0.000  -0.000   0.001   0.000   0.000  -0.000   0.000  -0.000  -0.000  -0.532  -0.001  -0.000  -0.000  -0.000   0.418
 -0.000  -0.000   0.000   0.002   0.002   0.000  -0.001   0.000  -0.001   0.000  -0.001  -0.000   0.000  -0.001  -0.000  -0.001
  0.000   0.000  -0.000  -0.000  -0.000   0.000   0.001  -0.000   0.000  -0.000   0.000  -0.000   0.000  -0.000   0.000  -0.000


------------------------ aborting loop because EDIFF is reached ----------------------------------------


    CHARGE:  cpu time   95.03: real time   95.04
    FORLOC:  cpu time    0.26: real time    0.26
    FORNL :  cpu time  408.61: real time  408.65
    STRESS:  cpu time  424.47: real time  424.51
    FORCOR:  cpu time    2.47: real time    2.47
    FORHAR:  cpu time    0.77: real time    0.77
    MIXING:  cpu time    0.08: real time    0.08

  FORCE on cell =-STRESS in cart. coord.  units (eV):
  Direction    XX          YY          ZZ          XY          YZ          ZX
  --------------------------------------------------------------------------------------
  Alpha Z  3636.37250  3636.37250  3636.37250
  Ewald  -19367.54690-19367.58905-19367.58905    -0.00000    -0.00464    -0.00000
  Hartree  4871.66739  4872.67025  4871.33627    -0.77915     0.33319    -0.04741
  E(xc)   -2449.83687 -2449.82020 -2449.83916    -0.00390     0.00398    -0.00433
  Local    4810.71705  4807.99250  4811.69136     2.08315    -0.74060    -0.11257
  n-local  -758.62560  -757.78235  -758.67026    -0.07708     0.22140    -0.28462
  augment  3282.56673  3282.98181  3282.24866    -0.64232     0.09289     0.26259
  Kinetic  5980.42320  5980.79902  5979.83699    -0.78463     0.23868     0.24260
  Fock        0.00000     0.00000     0.00000     0.00000     0.00000     0.00000
  -------------------------------------------------------------------------------------
  Total       5.73750     5.62449     5.38731    -0.20393     0.14489     0.05627
  in kB      22.48780    22.04484    21.11524    -0.79931     0.56790     0.22055
  external pressure =       21.88 kB  Pullay stress =        0.00 kB


 VOLUME and BASIS-vectors are now :
 -----------------------------------------------------------------------------
  energy-cutoff  :      500.00
  volume of cell :      408.78
      direct lattice vectors                 reciprocal lattice vectors
     0.000000000  5.890500000  5.890500000    -0.084882438  0.084882438  0.084882438
     5.890500000  0.000000000  5.890500000     0.084882438 -0.084882438  0.084882438
     5.890500000  5.890500000  0.000000000     0.084882438  0.084882438 -0.084882438

  length of vectors
     8.330424989  8.330424989  8.330424989     0.147020695  0.147020695  0.147020695


 FORCES acting on ions
    electron-ion (+dipol)            ewald-force                    non-local-force                 convergence-correction
 -----------------------------------------------------------------------------------------------
   0.422E-03 0.693E+01 0.693E+01   0.293E-12 -.694E+01 -.694E+01   -.398E-03 -.459E-01 -.458E-01   0.358E-04 -.514E-04 -.127E-04
   -.450E-03 -.280E+01 -.280E+01   0.506E-10 0.281E+01 0.281E+01   0.235E-03 0.119E-01 0.119E-01   0.446E-04 0.887E-05 0.426E-04
   -.405E-03 -.278E+01 -.278E+01   -.501E-10 0.278E+01 0.278E+01   0.244E-03 0.119E-01 0.120E-01   -.300E-05 -.565E-05 0.396E-04
   -.191E+01 0.964E+00 -.875E+00   0.191E+01 -.968E+00 0.877E+00   0.620E-02 0.261E-02 0.588E-02   0.156E-04 0.820E-05 -.128E-04
   -.263E-02 -.508E+00 -.510E+00   0.308E-02 0.510E+00 0.513E+00   -.177E-03 -.196E-02 -.208E-02   -.332E-04 0.176E-04 -.154E-04
   0.191E+01 -.884E+00 0.951E+00   -.191E+01 0.886E+00 -.955E+00   -.605E-02 0.584E-02 0.258E-02   -.615E-04 0.194E-04 -.247E-04
   -.191E+01 0.951E+00 -.885E+00   0.191E+01 -.955E+00 0.886E+00   0.634E-02 0.252E-02 0.601E-02   0.838E-05 -.435E-04 -.221E-04
   0.191E+01 -.875E+00 0.964E+00   -.191E+01 0.877E+00 -.968E+00   -.591E-02 0.572E-02 0.268E-02   -.228E-04 -.506E-05 -.198E-04
   0.344E-02 -.510E+00 -.507E+00   -.308E-02 0.513E+00 0.510E+00   -.150E-03 -.196E-02 -.208E-02   -.390E-05 0.350E-04 0.486E-04
   -.191E+01 -.875E+00 0.964E+00   0.191E+01 0.877E+00 -.968E+00   0.584E-02 0.605E-02 0.245E-02   0.616E-04 0.281E-05 -.131E-04
   -.304E-02 -.510E+00 -.508E+00   0.308E-02 0.513E+00 0.510E+00   -.761E-04 -.177E-02 -.179E-02   0.719E-05 -.982E-05 0.189E-05
   0.191E+01 0.952E+00 -.884E+00   -.191E+01 -.955E+00 0.886E+00   -.631E-02 0.239E-02 0.574E-02   -.109E-04 -.318E-05 0.134E-04
   -.488E+00 -.227E-01 -.231E-01   0.490E+00 0.232E-01 0.232E-01   -.151E-02 -.323E-03 0.190E-03   0.355E-05 0.161E-05 -.520E-04
   0.485E+00 -.222E-01 -.217E-01   -.487E+00 0.223E-01 0.223E-01   0.183E-02 0.135E-04 -.233E-03   -.313E-04 0.158E-04 -.289E-04
   0.279E-02 0.515E-01 0.515E-01   -.268E-02 -.521E-01 -.521E-01   -.547E-04 0.833E-03 0.633E-03   -.144E-04 0.607E-04 0.343E-05
   0.177E-03 0.104E+01 0.102E+01   -.114E-12 -.104E+01 -.102E+01   -.151E-03 -.352E-03 -.169E-03   0.377E-04 -.192E-04 -.383E-04
   -.128E-04 -.903E+00 0.541E-01   0.500E-10 0.907E+00 -.548E-01   -.138E-04 -.322E-02 0.730E-03   0.431E-04 0.281E-04 0.676E-05
   -.600E-04 0.485E-01 -.901E+00   -.503E-10 -.495E-01 0.904E+00   0.100E-03 0.882E-03 -.290E-02   0.191E-06 0.179E-04 0.954E-05
   -.191E+01 -.884E+00 0.952E+00   0.191E+01 0.886E+00 -.955E+00   0.599E-02 0.617E-02 0.236E-02   0.180E-04 -.546E-04 -.241E-04
   0.191E+01 0.964E+00 -.875E+00   -.191E+01 -.968E+00 0.877E+00   -.616E-02 0.248E-02 0.562E-02   -.155E-04 -.401E-04 0.193E-04
   0.307E-02 -.508E+00 -.510E+00   -.308E-02 0.510E+00 0.513E+00   -.446E-04 -.177E-02 -.180E-02   -.422E-05 0.244E-04 0.684E-04
   0.219E-03 0.102E+01 0.104E+01   0.568E-13 -.102E+01 -.104E+01   -.151E-03 -.210E-03 -.298E-03   -.441E-05 -.257E-04 -.448E-04
   -.638E-04 0.538E-01 -.903E+00   0.501E-10 -.548E-01 0.907E+00   0.102E-03 0.913E-03 -.293E-02   0.423E-05 0.274E-04 0.154E-04
   0.677E-04 -.901E+00 0.488E-01   -.502E-10 0.904E+00 -.495E-01   -.151E-04 -.319E-02 0.689E-03   -.383E-04 0.347E-04 -.204E-05
   -.486E+00 -.218E-01 -.223E-01   0.487E+00 0.223E-01 0.223E-01   -.149E-02 -.309E-03 0.196E-03   0.346E-04 -.178E-04 0.190E-04
   -.254E-02 0.516E-01 0.515E-01   0.268E-02 -.521E-01 -.521E-01   -.783E-04 0.828E-03 0.632E-03   -.215E-04 -.215E-04 -.380E-06
   0.488E+00 -.231E-01 -.227E-01   -.490E+00 0.232E-01 0.232E-01   0.186E-02 0.291E-05 -.237E-03   -.479E-04 -.337E-05 0.239E-04
 -----------------------------------------------------------------------------------------------
   -.802E-06 -.575E-05 -.546E-05   -.639E-13 -.680E-12 -.121E-11   -.976E-06 0.734E-05 0.714E-05   0.162E-05 0.152E-05 0.755E-06
 
 
 POSITION                                       TOTAL-FORCE (eV/Angst)
 -----------------------------------------------------------------------------------
      0.00000      0.00707      0.00707         0.000061     -0.061962     -0.061532
      0.00000      1.96350      1.96350        -0.000171      0.016866      0.016792
      0.00000      3.92700      3.92700        -0.000164      0.016050      0.015975
      1.96350      0.00000      1.96350         0.009058     -0.001022      0.007569
      1.96350      1.96350      3.92700         0.000242      0.000623      0.000822
      1.96350      3.92700      5.89050        -0.008946      0.007518     -0.001111
      3.92700      0.00000      3.92700         0.008847     -0.000972      0.007418
      3.92700      1.96350      5.89050        -0.009159      0.007675     -0.001155
      3.92700      3.92700      7.85400         0.000204      0.000627      0.000822
      1.96350      1.96350      0.00000         0.008970      0.007728     -0.000796
      1.96350      3.92700      1.96350        -0.000026      0.000767      0.000695
      1.96350      5.89050      3.92700        -0.008753     -0.000934      0.007261
      3.92700      1.96350      1.96350         0.000372      0.000151      0.000258
      3.92700      3.92700      3.92700        -0.000480      0.000111      0.000285
      3.92700      5.89050      5.89050         0.000035      0.000308     -0.000024
      5.89050      1.96350      3.92700         0.000063     -0.001148     -0.001151
      5.89050      3.92700      5.89050         0.000016      0.000496      0.000042
      5.89050      5.89050      7.85400         0.000040     -0.000084      0.000539
      3.92700      3.92700      0.00000         0.008757      0.007568     -0.000748
      3.92700      5.89050      1.96350        -0.008959     -0.000982      0.007414
      3.92700      7.85400      3.92700        -0.000061      0.000768      0.000695
      5.89050      3.92700      1.96350         0.000064     -0.001143     -0.001160
      5.89050      5.89050      3.92700         0.000043     -0.000081      0.000532
      5.89050      7.85400      5.89050         0.000014      0.000499      0.000038
      7.85400      3.92700      3.92700         0.000368      0.000143      0.000248
      7.85400      5.89050      5.89050         0.000045      0.000306     -0.000025
      7.85400      7.85400      7.85400        -0.000483      0.000125      0.000295
 -----------------------------------------------------------------------------------
    total drift:                               -0.000000      0.000003      0.000002


--------------------------------------------------------------------------------------------------------



  FREE ENERGIE OF THE ION-ELECTRON SYSTEM (eV)
  ---------------------------------------------------
  free  energy   TOTEN  =      -140.76457253 eV

  energy  without entropy=     -140.43784677  energy(sigma->0) =     -140.60120965
 


--------------------------------------------------------------------------------------------------------


    POTLOK:  cpu time    5.09: real time    5.10


--------------------------------------------------------------------------------------------------------


     LOOP+:  cpu time26679.11: real time26685.45
    4ORBIT:  cpu time    0.00: real time    0.00

 total amount of memory used by VASP on root node  1359236. kBytes
========================================================================

   base      :      30000. kBytes
   nonl-proj :      43438. kBytes
   grid      :     112263. kBytes
   one-center:        419. kBytes
   wavefun   :    1173116. kBytes
 
  
  
 General timing and accounting informations for this job:
 ========================================================
  
                  Total CPU time used (sec):    26760.225
                            User time (sec):    26001.600
                          System time (sec):      758.624
                         Elapsed time (sec):    26767.238
  
                   Maximum memory used (kb):     3623908.
                   Average memory used (kb):           0.
  
                          Minor page faults:    477128663
                          Major page faults:            9
                 Voluntary context switches:          478
