 vasp.5.3.3 18Dez12 (build Jun 21 2016 14:15:03) complex                        
  
 executed on             LinuxIFC date 2017.10.17  11:51:27
 serial version


--------------------------------------------------------------------------------------------------------


 INCAR:
 POTCAR:    PAW_PBE Pd_pv 28Jan2005               
 POTCAR:    PAW_PBE Pd_pv 28Jan2005               
   VRHFIN =Pd: 4p5s4d                                                           
   LEXCH  = PE                                                                  
   EATOM  =  2621.5550 eV,  192.6789 Ry                                         
                                                                                
   TITEL  = PAW_PBE Pd_pv 28Jan2005                                             
   LULTRA =        F    use ultrasoft PP ?                                      
   IUNSCR =        1    unscreen: 0-lin 1-nonlin 2-no                           
   RPACOR =    2.250    partial core radius                                     
   POMASS =  106.420; ZVAL   =   16.000    mass and valenz                      
   RCORE  =    2.400    outmost cutoff radius                                   
   RWIGS  =    2.300; RWIGS  =    1.217    wigner-seitz radius (au A)           
   ENMAX  =  250.925; ENMIN  =  188.194 eV                                      
   ICORE  =        3    local potential                                         
   LCOR   =        T    correct aug charges                                     
   LPAW   =        T    paw PP                                                  
   EAUG   =  473.067                                                            
   DEXC   =    0.000                                                            
   RMAX   =    2.449    core radius for proj-oper                               
   RAUG   =    1.300    factor for augmentation sphere                          
   RDEP   =    2.405    radius for radial grids                                 
   RDEPT  =    1.966    core radius for aug-charge                              
                                                                                
   Atomic configuration                                                         
   11 entries                                                                   
     n  l   j            E        occ.                                          
     1  0  0.50    -24164.6632   2.0000                                         
     2  0  0.50     -3530.9218   2.0000                                         
     2  1  1.50     -3165.6822   6.0000                                         
     3  0  0.50      -639.4578   2.0000                                         
     3  1  1.50      -519.4532   6.0000                                         
     3  2  2.50      -328.9758  10.0000                                         
     4  0  0.50       -88.7014   2.0000                                         
     4  1  1.50       -54.4541   6.0000                                         
     4  2  2.50        -6.6878   9.0000                                         
     5  0  0.50        -4.3543   1.0000                                         
     4  3  2.50        -1.3606   0.0000                                         
   Description                                                                  
     l       E           TYP  RCUT    TYP  RCUT                                 
     1    -54.4540524     23  2.100                                             
     1      4.0817478     23  2.100                                             
     2     -6.6878326     23  2.400                                             
     2     -4.0817478     23  2.400                                             
     0     -4.3542962     23  2.400                                             
     0     13.6058260     23  2.400                                             
     3     -5.4423304     23  2.400                                             
  local pseudopotential read in
  partial core-charges read in
  partial kinetic energy density read in
  atomic valenz-charges read in
  non local Contribution for L=           1  read in
    real space projection operators read in
  non local Contribution for L=           1  read in
    real space projection operators read in
  non local Contribution for L=           2  read in
    real space projection operators read in
  non local Contribution for L=           2  read in
    real space projection operators read in
  non local Contribution for L=           0  read in
    real space projection operators read in
  non local Contribution for L=           0  read in
    real space projection operators read in
    PAW grid and wavefunctions read in
 
   number of l-projection  operators is LMAX  =           6
   number of lm-projection operators is LMMAX =          18
 

 ----------------------------------------------------------------------------- 
|                                                                             |
|  ADVICE TO THIS USER RUNNING 'VASP/VAMP'   (HEAR YOUR MASTER'S VOICE ...):  |
|                                                                             |
|      You have a (more or less) 'large supercell' and for larger cells       |
|      it might be more efficient to use real space projection opertators     |
|      So try LREAL= Auto  in the INCAR   file.                               |
|      Mind: At the moment your POTCAR file does not contain real space       |
|       projectors, and has to be modified,  BUT if you                       |
|      want to do an extremely  accurate calculation you might also keep the  |
|      reciprocal projection scheme          (i.e. LREAL=.FALSE.)             |
|                                                                             |
 ----------------------------------------------------------------------------- 

  PAW_PBE Pd_pv 28Jan2005               :
 energy of atom  1       EATOM=-2621.5550
 kinetic energy error for atom=    0.0092 (will be added to EATOM!!)
 
 
 POSCAR: Pd                                      
  positions in cartesian coordinates
  No initial velocities read in
 exchange correlation table for  LEXCH =        8
   RHO(1)=    0.500       N(1)  =     2000
   RHO(2)=  100.500       N(2)  =     4000
 


--------------------------------------------------------------------------------------------------------


 ion  position               nearest neighbor table
   1  0.001  0.000  0.000-   5 2.77   8 2.77  17 2.77  20 2.77   2 2.78   4 2.78  29 2.78  31 2.78
                            27 2.78  28 2.78  13 2.78  14 2.78
   2  0.000  0.250  0.250-   3 2.78   5 2.78   6 2.78  14 2.78  15 2.78  17 2.78  18 2.78  25 2.78
                            28 2.78  30 2.78  32 2.78   1 2.78
   3  0.000  0.500  0.500-   2 2.78   4 2.78   6 2.78   7 2.78  15 2.78  16 2.78  18 2.78  19 2.78
                            25 2.78  26 2.78  29 2.78  31 2.78
   4  0.000  0.750  0.750-   3 2.78   7 2.78   8 2.78  13 2.78  16 2.78  19 2.78  20 2.78  26 2.78
                            27 2.78  30 2.78  32 2.78   1 2.78
   5  0.250  0.000  0.250-   1 2.77   2 2.78   6 2.78   8 2.78   9 2.78  12 2.78  17 2.78  19 2.78
                            21 2.78  24 2.78  31 2.78  32 2.78
   6  0.250  0.250  0.500-   2 2.78   3 2.78   5 2.78   7 2.78   9 2.78  10 2.78  18 2.78  20 2.78
                            21 2.78  22 2.78  29 2.78  32 2.78
   7  0.250  0.500  0.750-   3 2.78   4 2.78   6 2.78   8 2.78  10 2.78  11 2.78  17 2.78  19 2.78
                            22 2.78  23 2.78  29 2.78  30 2.78
   8  0.250  0.750  0.000-   1 2.77   4 2.78   5 2.78   7 2.78  11 2.78  12 2.78  18 2.78  20 2.78
                            23 2.78  24 2.78  30 2.78  31 2.78
   9  0.500  0.000  0.500-   5 2.78   6 2.78  10 2.78  12 2.78  13 2.78  16 2.78  19 2.78  20 2.78
                            21 2.78  23 2.78  25 2.78  28 2.78
  10  0.500  0.250  0.750-   6 2.78   7 2.78   9 2.78  11 2.78  13 2.78  14 2.78  17 2.78  20 2.78
                            22 2.78  24 2.78  25 2.78  26 2.78
  11  0.500  0.500  0.000-   7 2.78   8 2.78  10 2.78  12 2.78  14 2.78  15 2.78  17 2.78  18 2.78
                            21 2.78  23 2.78  26 2.78  27 2.78
  12  0.500  0.750  0.250-   5 2.78   8 2.78   9 2.78  11 2.78  15 2.78  16 2.78  18 2.78  19 2.78
                            22 2.78  24 2.78  27 2.78  28 2.78
  13  0.750  0.000  0.750-   4 2.78   9 2.78  10 2.78  14 2.78  16 2.78  23 2.78  24 2.78  25 2.78
                            27 2.78  29 2.78  32 2.78   1 2.78
  14  0.750  0.250  0.000-   2 2.78  10 2.78  11 2.78  13 2.78  15 2.78  21 2.78  24 2.78  26 2.78
                            28 2.78  29 2.78  30 2.78   1 2.78
  15  0.750  0.500  0.250-   2 2.78   3 2.78  11 2.78  12 2.78  14 2.78  16 2.78  21 2.78  22 2.78
                            25 2.78  27 2.78  30 2.78  31 2.78
  16  0.750  0.750  0.500-   3 2.78   4 2.78   9 2.78  12 2.78  13 2.78  15 2.78  22 2.78  23 2.78
                            26 2.78  28 2.78  31 2.78  32 2.78
  17  0.250  0.250  0.000-   1 2.77   2 2.78   5 2.78   7 2.78  10 2.78  11 2.78  18 2.78  20 2.78
                            21 2.78  24 2.78  29 2.78  30 2.78
  18  0.250  0.500  0.250-   2 2.78   3 2.78   6 2.78   8 2.78  11 2.78  12 2.78  17 2.78  19 2.78
                            21 2.78  22 2.78  30 2.78  31 2.78
  19  0.250  0.750  0.500-   3 2.78   4 2.78   5 2.78   7 2.78   9 2.78  12 2.78  18 2.78  20 2.78
                            22 2.78  23 2.78  31 2.78  32 2.78
  20  0.250  0.000  0.750-   1 2.77   4 2.78   6 2.78   8 2.78   9 2.78  10 2.78  17 2.78  19 2.78
                            23 2.78  24 2.78  29 2.78  32 2.78
  21  0.500  0.250  0.250-   5 2.78   6 2.78   9 2.78  11 2.78  14 2.78  15 2.78  17 2.78  18 2.78
                            22 2.78  24 2.78  25 2.78  28 2.78
  22  0.500  0.500  0.500-   6 2.78   7 2.78  10 2.78  12 2.78  15 2.78  16 2.78  18 2.78  19 2.78
                            21 2.78  23 2.78  25 2.78  26 2.78
  23  0.500  0.750  0.750-   7 2.78   8 2.78   9 2.78  11 2.78  13 2.78  16 2.78  19 2.78  20 2.78
                            22 2.78  24 2.78  26 2.78  27 2.78
  24  0.500  0.000  0.000-   5 2.78   8 2.78  10 2.78  12 2.78  13 2.78  14 2.78  17 2.78  20 2.78
                            21 2.78  23 2.78  27 2.78  28 2.78
  25  0.750  0.250  0.500-   2 2.78   3 2.78   9 2.78  10 2.78  13 2.78  15 2.78  21 2.78  22 2.78
                            26 2.78  28 2.78  29 2.78  32 2.78
  26  0.750  0.500  0.750-   3 2.78   4 2.78  10 2.78  11 2.78  14 2.78  16 2.78  22 2.78  23 2.78
                            25 2.78  27 2.78  29 2.78  30 2.78
  27  0.750  0.750  0.000-   4 2.78  11 2.78  12 2.78  13 2.78  15 2.78  23 2.78  24 2.78  26 2.78
                            28 2.78  30 2.78  31 2.78   1 2.78
  28  0.750  0.000  0.250-   2 2.78   9 2.78  12 2.78  14 2.78  16 2.78  21 2.78  24 2.78  25 2.78
                            27 2.78  31 2.78  32 2.78   1 2.78
  29  0.000  0.250  0.750-   3 2.78   6 2.78   7 2.78  13 2.78  14 2.78  17 2.78  20 2.78  25 2.78
                            26 2.78  30 2.78  32 2.78   1 2.78
  30  0.000  0.500  0.000-   2 2.78   4 2.78   7 2.78   8 2.78  14 2.78  15 2.78  17 2.78  18 2.78
                            26 2.78  27 2.78  29 2.78  31 2.78
  31  0.000  0.750  0.250-   3 2.78   5 2.78   8 2.78  15 2.78  16 2.78  18 2.78  19 2.78  27 2.78
                            28 2.78  30 2.78  32 2.78   1 2.78
  32  0.000  0.000  0.500-   2 2.78   4 2.78   5 2.78   6 2.78  13 2.78  16 2.78  19 2.78  20 2.78
                            25 2.78  28 2.78  29 2.78  31 2.78
 

IMPORTANT INFORMATION: All symmetrisations will be switched off!
NOSYMM: (Re-)initialisation of all symmetry stuff for point group C_1.

 
 
 KPOINTS: Server version 2017.05.18. K-point grid 
  k-points in reciprocal lattice
Space group operators:
 irot       det(A)        alpha          n_x          n_y          n_z        tau_x        tau_y        tau_z
    1     1.000000     0.000000     1.000000     0.000000     0.000000     0.000000     0.000000     0.000000


--------------------------------------------------------------------------------------------------------




 Dimension of arrays:
   k-points           NKPTS =     24   k-points in BZ     NKDIM =     24   number of bands    NBANDS=    307
   number of dos      NEDOS =    301   number of ions     NIONS =     32
   non local maximal  LDIM  =      6   non local SUM 2l+1 LMDIM =     18
   total plane-waves  NPLWV = 216000
   max r-space proj   IRMAX =      1   max aug-charges    IRDMAX= 142975
   dimension x,y,z NGX =    60 NGY =   60 NGZ =   60
   dimension x,y,z NGXF=   120 NGYF=  120 NGZF=  120
   support grid    NGXF=   240 NGYF=  240 NGZF=  240
   ions per type =              32
 NGX,Y,Z   is equivalent  to a cutoff of  12.70, 12.70, 12.70 a.u.
 NGXF,Y,Z  is equivalent  to a cutoff of  25.40, 25.40, 25.40 a.u.


 I would recommend the setting:
   dimension x,y,z NGX =    57 NGY =   57 NGZ =   57
 SYSTEM =  unknown system                          
 POSCAR =  Pd                                      

 Startparameter for this run:
   NWRITE =      2    write-flag & timer
   PREC   = a         normal or accurate (medium, high low for compatibility)
   ISTART =      0    job   : 0-new  1-cont  2-samecut
   ICHARG =      2    charge: 1-file 2-atom 10-const
   ISPIN  =      1    spin polarized calculation?
   LNONCOLLINEAR =      F non collinear calculations
   LSORBIT =      F    spin-orbit coupling
   INIWAV =      1    electr: 0-lowe 1-rand  2-diag
   LASPH  =      F    aspherical Exc in radial PAW
   METAGGA=      F    non-selfconsistent MetaGGA calc.

 Electronic Relaxation 1
   ENCUT  =  500.0 eV  36.75 Ry    6.06 a.u.  14.32 14.32 14.32*2*pi/ulx,y,z
   ENINI  =  500.0     initial cutoff
   ENAUG  =  473.1 eV  augmentation charge cutoff
   NELM   =     60;   NELMIN=  2; NELMDL=  0     # of ELM steps 
   EDIFF  = 0.1E-07   stopping-criterion for ELM
   LREAL  =      F    real-space projection
   NLSPLINE    = F    spline interpolate recip. space projectors
   LCOMPAT=      F    compatible to vasp.4.4
   GGA_COMPAT  = T    GGA compatible to vasp.4.4-vasp.4.6
   LMAXPAW     = -100 max onsite density
   LMAXMIX     =    2 max onsite mixed and CHGCAR
   VOSKOWN=      0    Vosko Wilk Nusair interpolation
   ROPT   =    0.00000
 Ionic relaxation
   EDIFFG = 0.1E-06   stopping-criterion for IOM
   NSW    =      0    number of steps for IOM
   NBLOCK =      1;   KBLOCK =      1    inner block; outer block 
   IBRION =     -1    ionic relax: 0-MD 1-quasi-New 2-CG
   NFREE  =      0    steps in history (QN), initial steepest desc. (CG)
   ISIF   =      2    stress and relaxation
   IWAVPR =      0    prediction:  0-non 1-charg 2-wave 3-comb
   ISYM   =      0    0-nonsym 1-usesym 2-fastsym
   LCORR  =      T    Harris-Foulkes like correction to forces

   POTIM  = 0.5000    time-step for ionic-motion
   TEIN   =    0.0    initial temperature
   TEBEG  =    0.0;   TEEND  =   0.0 temperature during run
   SMASS  =  -3.00    Nose mass-parameter (am)
   estimated Nose-frequenzy (Omega)   =  0.10E-29 period in steps =****** mass=  -0.141E-26a.u.
   SCALEE = 1.0000    scale energy and forces
   NPACO  =    256;   APACO  = 16.0  distance and # of slots for P.C.
   PSTRESS=    0.0 pullay stress

  Mass of Ions in am
   POMASS = 106.42
  Ionic Valenz
   ZVAL   =  16.00
  Atomic Wigner-Seitz radii
   RWIGS  =  -1.00
  virtual crystal weights 
   VCA    =   1.00
   NELECT =     512.0000    total number of electrons
   NUPDOWN=      -1.0000    fix difference up-down

 DOS related values:
   EMIN   =  10.00;   EMAX   =-10.00  energy-range for DOS
   EFERMI =   0.00
   ISMEAR =     0;   SIGMA  =   0.10  broadening in eV -4-tet -1-fermi 0-gaus

 Electronic relaxation 2 (details)
   IALGO  =     38    algorithm
   LDIAG  =      T    sub-space diagonalisation (order eigenvalues)
   LSUBROT=      T    optimize rotation matrix (better conditioning)
   TURBO    =      0    0=normal 1=particle mesh
   IRESTART =      0    0=no restart 2=restart with 2 vectors
   NREBOOT  =      0    no. of reboots
   NMIN     =      0    reboot dimension
   EREF     =   0.00    reference energy to select bands
   IMIX   =      4    mixing-type and parameters
     AMIX     =   0.40;   BMIX     =  1.00
     AMIX_MAG =   1.60;   BMIX_MAG =  1.00
     AMIN     =   0.10
     WC   =   100.;   INIMIX=   1;  MIXPRE=   1;  MAXMIX= -45

 Intra band minimization:
   WEIMIN = 0.0000     energy-eigenvalue tresh-hold
   EBREAK =  0.81E-11  absolut break condition
   DEPER  =   0.30     relativ break condition  

   TIME   =   0.40     timestep for ELM

  volume/ion in A,a.u.               =      15.14       102.17
  Fermi-wavevector in a.u.,A,eV,Ry     =   1.667531  3.151177 37.833172  2.780660
  Thomas-Fermi vector in A             =   2.753537
 
 Write flags
   LWAVE  =      F    write WAVECAR
   LCHARG =      T    write CHGCAR
   LVTOT  =      F    write LOCPOT, total local potential
   LVHAR  =      F    write LOCPOT, Hartree potential only
   LELF   =      F    write electronic localiz. function (ELF)
   LORBIT =      0    0 simple, 1 ext, 2 COOP (PROOUT)


 Dipole corrections
   LMONO  =      F    monopole corrections only (constant potential shift)
   LDIPOL =      F    correct potential (dipole corrections)
   IDIPOL =      0    1-x, 2-y, 3-z, 4-all directions 
   EPSILON=  1.0000000 bulk dielectric constant

 Exchange correlation treatment:
   GGA     =    --    GGA type
   LEXCH   =     8    internal setting for exchange type
   VOSKOWN=      0    Vosko Wilk Nusair interpolation
   LHFCALC =     F    Hartree Fock is set to
   LHFONE  =     F    Hartree Fock one center treatment
   AEXX    =    0.0000 exact exchange contribution

 Linear response parameters
   LEPSILON=     F    determine dielectric tensor
   LRPA    =     F    only Hartree local field effects (RPA)
   LNABLA  =     F    use nabla operator in PAW spheres
   LVEL    =     F    velocity operator in full k-point grid
   LINTERFAST=   F  fast interpolation
   KINTER  =     0    interpolate to denser k-point grid
   CSHIFT  =0.1000    complex shift for real part using Kramers Kronig
   OMEGAMAX=  -1.0    maximum frequency
   DEG_THRESHOLD= 0.2000000E-02 threshold for treating states as degnerate
   RTIME   =    0.100 relaxation time in fs

 Orbital magnetization related:
   ORBITALMAG=     F  switch on orbital magnetization
   LCHIMAG   =     F  perturbation theory with respect to B field
   DQ        =  0.001000  dq finite difference perturbation B field



--------------------------------------------------------------------------------------------------------


 Static calculation
 charge density and potential will be updated during run
 non-spin polarized calculation
 Variant of blocked Davidson
 Davidson routine will perform the subspace rotation
 perform sub-space diagonalisation
    after iterative eigenvector-optimisation
 modified Broyden-mixing scheme, WC =      100.0
 initial mixing is a Kerker type mixing with AMIX =  0.4000 and BMIX =      1.0000
 Hartree-type preconditioning will be used
 using additional bands           51
 reciprocal scheme for non local part
 use partial core corrections
 calculate Harris-corrections to forces 
   (improved forces if not selfconsistent)
 use gradient corrections 
 use of overlap-Matrix (Vanderbilt PP)
 Gauss-broadening in eV      SIGMA  =   0.10


--------------------------------------------------------------------------------------------------------


  energy-cutoff  :      500.00
  volume of cell :      484.48
      direct lattice vectors                 reciprocal lattice vectors
     7.854000000 -0.000000000 -0.000000000     0.127323657  0.000000000 -0.000000000
    -0.000000000  7.854000000  0.000000000     0.000000000  0.127323657 -0.000000000
     0.000000000  0.000000000  7.854000000     0.000000000 -0.000000000  0.127323657

  length of vectors
     7.854000000  7.854000000  7.854000000     0.127323657  0.127323657  0.127323657


 
 k-points in units of 2pi/SCALE and weight: Server version 2017.05.18. K-point grid 
   0.03183091  0.01591546  0.11671335       0.042
   0.06366183  0.01591546  0.09549274       0.042
   0.09549274  0.01591546  0.07427213       0.042
   0.00000000  0.01591546  0.05305152       0.042
   0.03183091  0.01591546  0.03183091       0.042
   0.06366183  0.01591546  0.01061030       0.042
   0.09549274  0.01591546  0.11671335       0.042
   0.00000000  0.01591546  0.09549274       0.042
   0.03183091  0.01591546  0.07427213       0.042
   0.06366183  0.01591546  0.05305152       0.042
   0.09549274  0.01591546  0.03183091       0.042
   0.00000000  0.01591546  0.01061030       0.042
   0.03183091  0.04774637  0.09549274       0.042
   0.06366183  0.04774637  0.07427213       0.042
   0.09549274  0.04774637  0.05305152       0.042
   0.00000000  0.04774637  0.03183091       0.042
   0.03183091  0.04774637  0.01061030       0.042
   0.06366183  0.04774637  0.11671335       0.042
   0.09549274  0.04774637  0.09549274       0.042
   0.00000000  0.04774637  0.07427213       0.042
   0.03183091  0.04774637  0.05305152       0.042
   0.06366183  0.04774637  0.03183091       0.042
   0.09549274  0.04774637  0.01061030       0.042
   0.00000000  0.04774637  0.11671335       0.042
 
 k-points in reciprocal lattice and weights: Server version 2017.05.18. K-point grid 
   0.25000000  0.12500000  0.91666667       0.042
   0.50000000  0.12500000  0.75000000       0.042
   0.75000000  0.12500000  0.58333333       0.042
   0.00000000  0.12500000  0.41666667       0.042
   0.25000000  0.12500000  0.25000000       0.042
   0.50000000  0.12500000  0.08333333       0.042
   0.75000000  0.12500000  0.91666667       0.042
   0.00000000  0.12500000  0.75000000       0.042
   0.25000000  0.12500000  0.58333333       0.042
   0.50000000  0.12500000  0.41666667       0.042
   0.75000000  0.12500000  0.25000000       0.042
   0.00000000  0.12500000  0.08333333       0.042
   0.25000000  0.37500000  0.75000000       0.042
   0.50000000  0.37500000  0.58333333       0.042
   0.75000000  0.37500000  0.41666667       0.042
   0.00000000  0.37500000  0.25000000       0.042
   0.25000000  0.37500000  0.08333333       0.042
   0.50000000  0.37500000  0.91666667       0.042
   0.75000000  0.37500000  0.75000000       0.042
   0.00000000  0.37500000  0.58333333       0.042
   0.25000000  0.37500000  0.41666667       0.042
   0.50000000  0.37500000  0.25000000       0.042
   0.75000000  0.37500000  0.08333333       0.042
   0.00000000  0.37500000  0.91666667       0.042
 
 position of ions in fractional coordinates (direct lattice) 
   0.00127324  0.00000000  0.00000000
   0.00000000  0.25000000  0.25000000
   0.00000000  0.50000000  0.50000000
   0.00000000  0.75000000  0.75000000
   0.25000000  0.00000000  0.25000000
   0.25000000  0.25000000  0.50000000
   0.25000000  0.50000000  0.75000000
   0.25000000  0.75000000  0.00000000
   0.50000000  0.00000000  0.50000000
   0.50000000  0.25000000  0.75000000
   0.50000000  0.50000000  0.00000000
   0.50000000  0.75000000  0.25000000
   0.75000000  0.00000000  0.75000000
   0.75000000  0.25000000  0.00000000
   0.75000000  0.50000000  0.25000000
   0.75000000  0.75000000  0.50000000
   0.25000000  0.25000000  0.00000000
   0.25000000  0.50000000  0.25000000
   0.25000000  0.75000000  0.50000000
   0.25000000  0.00000000  0.75000000
   0.50000000  0.25000000  0.25000000
   0.50000000  0.50000000  0.50000000
   0.50000000  0.75000000  0.75000000
   0.50000000  0.00000000  0.00000000
   0.75000000  0.25000000  0.50000000
   0.75000000  0.50000000  0.75000000
   0.75000000  0.75000000  0.00000000
   0.75000000  0.00000000  0.25000000
   0.00000000  0.25000000  0.75000000
   0.00000000  0.50000000  0.00000000
   0.00000000  0.75000000  0.25000000
   0.00000000  0.00000000  0.50000000
 
 position of ions in cartesian coordinates  (Angst):
   0.01000000 -0.00000000 -0.00000000
   0.00000000  1.96350000  1.96350000
   0.00000000  3.92700000  3.92700000
   0.00000000  5.89050000  5.89050000
   1.96350000  0.00000000  1.96350000
   1.96350000  1.96350000  3.92700000
   1.96350000  3.92700000  5.89050000
   1.96350000  5.89050000  0.00000000
   3.92700000  0.00000000  3.92700000
   3.92700000  1.96350000  5.89050000
   3.92700000  3.92700000  0.00000000
   3.92700000  5.89050000  1.96350000
   5.89050000  0.00000000  5.89050000
   5.89050000  1.96350000 -0.00000000
   5.89050000  3.92700000  1.96350000
   5.89050000  5.89050000  3.92700000
   1.96350000  1.96350000  0.00000000
   1.96350000  3.92700000  1.96350000
   1.96350000  5.89050000  3.92700000
   1.96350000  0.00000000  5.89050000
   3.92700000  1.96350000  1.96350000
   3.92700000  3.92700000  3.92700000
   3.92700000  5.89050000  5.89050000
   3.92700000 -0.00000000 -0.00000000
   5.89050000  1.96350000  3.92700000
   5.89050000  3.92700000  5.89050000
   5.89050000  5.89050000  0.00000000
   5.89050000 -0.00000000  1.96350000
   0.00000000  1.96350000  5.89050000
  -0.00000000  3.92700000  0.00000000
  -0.00000000  5.89050000  1.96350000
   0.00000000  0.00000000  3.92700000
 


--------------------------------------------------------------------------------------------------------


 k-point  1 :   0.2500 0.1250 0.9167  plane waves:   12326
 k-point  2 :   0.5000 0.1250 0.7500  plane waves:   12292
 k-point  3 :   0.7500 0.1250 0.5833  plane waves:   12289
 k-point  4 :   0.0000 0.1250 0.4167  plane waves:   12312
 k-point  5 :   0.2500 0.1250 0.2500  plane waves:   12302
 k-point  6 :   0.5000 0.1250 0.0833  plane waves:   12296
 k-point  7 :   0.7500 0.1250 0.9167  plane waves:   12326
 k-point  8 :   0.0000 0.1250 0.7500  plane waves:   12307
 k-point  9 :   0.2500 0.1250 0.5833  plane waves:   12289
 k-point 10 :   0.5000 0.1250 0.4167  plane waves:   12300
 k-point 11 :   0.7500 0.1250 0.2500  plane waves:   12302
 k-point 12 :   0.0000 0.1250 0.0833  plane waves:   12297
 k-point 13 :   0.2500 0.3750 0.7500  plane waves:   12311
 k-point 14 :   0.5000 0.3750 0.5833  plane waves:   12310
 k-point 15 :   0.7500 0.3750 0.4167  plane waves:   12288
 k-point 16 :   0.0000 0.3750 0.2500  plane waves:   12295
 k-point 17 :   0.2500 0.3750 0.0833  plane waves:   12291
 k-point 18 :   0.5000 0.3750 0.9167  plane waves:   12298
 k-point 19 :   0.7500 0.3750 0.7500  plane waves:   12311
 k-point 20 :   0.0000 0.3750 0.5833  plane waves:   12306
 k-point 21 :   0.2500 0.3750 0.4167  plane waves:   12288
 k-point 22 :   0.5000 0.3750 0.2500  plane waves:   12284
 k-point 23 :   0.7500 0.3750 0.0833  plane waves:   12291
 k-point 24 :   0.0000 0.3750 0.9167  plane waves:   12325

 maximum number of plane-waves:     12326
 maximum index in each direction: 
   IXMAX=   14   IYMAX=   14   IZMAX=   14
   IXMIN=  -15   IYMIN=  -14   IZMIN=  -15

 NGX is ok and might be reduce to  60
 NGY is ok and might be reduce to  58
 NGZ is ok and might be reduce to  60

 total amount of memory used by VASP on root node  1692959. kBytes
========================================================================

   base      :      30000. kBytes
   nonl-proj :      48909. kBytes
   grid      :      92563. kBytes
   one-center:        497. kBytes
   wavefun   :    1520990. kBytes
 
 For storing wavefunctions 1450.20 MBYTES are necessary
 For predicting wavefunctions  141.64 MBYTES are necessary
 Broyden mixing: mesh for mixing (old mesh)
   NGX = 29   NGY = 29   NGZ = 29
  (NGX  =120   NGY  =120   NGZ  =120)
  gives a total of  24389 points

 initial charge density was supplied:
 charge density of overlapping atoms calculated
 number of electron     512.0000000 magnetization 
 keeping initial charge density in first step


--------------------------------------------------------------------------------------------------------


 Maximum index for augmentation-charges       138745 (set IRDMAX)


--------------------------------------------------------------------------------------------------------


 First call to EWALD:  gamma=   0.226
 Maximum number of real-space cells 3x 3x 3
 Maximum number of reciprocal cells 3x 3x 3

    FEWALD:  cpu time    0.01: real time    0.01


----------------------------------------- Iteration    1(   1)  ---------------------------------------


    POTLOK:  cpu time    1.20: real time    1.20
    SETDIJ:  cpu time    1.27: real time    1.27
     EDDAV:  cpu time  649.16: real time  649.73
       DOS:  cpu time    0.01: real time    0.01
    --------------------------------------------
      LOOP:  cpu time  651.64: real time  652.22

 eigenvalue-minimisations  : 14928
 total energy-change (2. order) : 0.7085558E+04  (-0.3011092E+05)
 number of electron     512.0000000 magnetization 
 augmentation part      512.0000000 magnetization 

 Free energy of the ion-electron system (eV)
  ---------------------------------------------------
  alpha Z        PSCENC =      4309.77481446
  Ewald energy   TEWEN  =    -68862.23829894
  -1/2 Hartree   DENC   =    -17896.79401706
  -exchange  EXHF       =         0.00000000
  -V(xc)+E(xc)   XCENC  =      2649.00743571
  PAW double counting   =     72255.69020719   -71333.34611920
  entropy T*S    EENTRO =        -0.02733374
  eigenvalues    EBANDS =      2074.02493230
  atomic energy  EATOM  =     83889.46633811
  ---------------------------------------------------
  free energy    TOTEN  =      7085.55795883 eV

  energy without entropy =     7085.58529257  energy(sigma->0) =     7085.57162570


--------------------------------------------------------------------------------------------------------




----------------------------------------- Iteration    1(   2)  ---------------------------------------


     EDDAV:  cpu time  643.89: real time  644.45
       DOS:  cpu time    0.01: real time    0.01
    --------------------------------------------
      LOOP:  cpu time  643.90: real time  644.47

 eigenvalue-minimisations  : 14736
 total energy-change (2. order) :-0.6829724E+04  (-0.6634664E+04)
 number of electron     512.0000000 magnetization 
 augmentation part      512.0000000 magnetization 

 Free energy of the ion-electron system (eV)
  ---------------------------------------------------
  alpha Z        PSCENC =      4309.77481446
  Ewald energy   TEWEN  =    -68862.23829894
  -1/2 Hartree   DENC   =    -17896.79401706
  -exchange  EXHF       =         0.00000000
  -V(xc)+E(xc)   XCENC  =      2649.00743571
  PAW double counting   =     72255.69020719   -71333.34611920
  entropy T*S    EENTRO =        -0.08998658
  eigenvalues    EBANDS =     -4755.63602164
  atomic energy  EATOM  =     83889.46633811
  ---------------------------------------------------
  free energy    TOTEN  =       255.83435205 eV

  energy without entropy =      255.92433864  energy(sigma->0) =      255.87934534


--------------------------------------------------------------------------------------------------------




----------------------------------------- Iteration    1(   3)  ---------------------------------------


     EDDAV:  cpu time  668.11: real time  668.68
       DOS:  cpu time    0.02: real time    0.02
    --------------------------------------------
      LOOP:  cpu time  668.12: real time  668.71

 eigenvalue-minimisations  : 15491
 total energy-change (2. order) :-0.4183648E+03  (-0.3778759E+03)
 number of electron     512.0000000 magnetization 
 augmentation part      512.0000000 magnetization 

 Free energy of the ion-electron system (eV)
  ---------------------------------------------------
  alpha Z        PSCENC =      4309.77481446
  Ewald energy   TEWEN  =    -68862.23829894
  -1/2 Hartree   DENC   =    -17896.79401706
  -exchange  EXHF       =         0.00000000
  -V(xc)+E(xc)   XCENC  =      2649.00743571
  PAW double counting   =     72255.69020719   -71333.34611920
  entropy T*S    EENTRO =        -0.37109231
  eigenvalues    EBANDS =     -5173.71969636
  atomic energy  EATOM  =     83889.46633811
  ---------------------------------------------------
  free energy    TOTEN  =      -162.53042840 eV

  energy without entropy =     -162.15933609  energy(sigma->0) =     -162.34488224


--------------------------------------------------------------------------------------------------------




----------------------------------------- Iteration    1(   4)  ---------------------------------------


     EDDAV:  cpu time  670.71: real time  671.31
       DOS:  cpu time    0.02: real time    0.02
    --------------------------------------------
      LOOP:  cpu time  670.73: real time  671.33

 eigenvalue-minimisations  : 15565
 total energy-change (2. order) :-0.1255597E+02  (-0.1239027E+02)
 number of electron     512.0000000 magnetization 
 augmentation part      512.0000000 magnetization 

 Free energy of the ion-electron system (eV)
  ---------------------------------------------------
  alpha Z        PSCENC =      4309.77481446
  Ewald energy   TEWEN  =    -68862.23829894
  -1/2 Hartree   DENC   =    -17896.79401706
  -exchange  EXHF       =         0.00000000
  -V(xc)+E(xc)   XCENC  =      2649.00743571
  PAW double counting   =     72255.69020719   -71333.34611920
  entropy T*S    EENTRO =        -0.37524715
  eigenvalues    EBANDS =     -5186.27150865
  atomic energy  EATOM  =     83889.46633811
  ---------------------------------------------------
  free energy    TOTEN  =      -175.08639553 eV

  energy without entropy =     -174.71114838  energy(sigma->0) =     -174.89877195


--------------------------------------------------------------------------------------------------------




----------------------------------------- Iteration    1(   5)  ---------------------------------------


     EDDAV:  cpu time  669.87: real time  670.46
       DOS:  cpu time    0.02: real time    0.02
    CHARGE:  cpu time   49.67: real time   49.72
    MIXING:  cpu time    0.02: real time    0.02
    --------------------------------------------
      LOOP:  cpu time  719.58: real time  720.22

 eigenvalue-minimisations  : 15536
 total energy-change (2. order) :-0.1357460E+00  (-0.1356852E+00)
 number of electron     512.0000025 magnetization 
 augmentation part      239.0762486 magnetization 

 Broyden mixing:
  rms(total) = 0.27511E+01    rms(broyden)= 0.27510E+01
  rms(prec ) = 0.34811E+01
  weight for this iteration     100.00

 Free energy of the ion-electron system (eV)
  ---------------------------------------------------
  alpha Z        PSCENC =      4309.77481446
  Ewald energy   TEWEN  =    -68862.23829894
  -1/2 Hartree   DENC   =    -17896.79401706
  -exchange  EXHF       =         0.00000000
  -V(xc)+E(xc)   XCENC  =      2649.00743571
  PAW double counting   =     72255.69020719   -71333.34611920
  entropy T*S    EENTRO =        -0.37532568
  eigenvalues    EBANDS =     -5186.40717610
  atomic energy  EATOM  =     83889.46633811
  ---------------------------------------------------
  free energy    TOTEN  =      -175.22214151 eV

  energy without entropy =     -174.84681583  energy(sigma->0) =     -175.03447867


--------------------------------------------------------------------------------------------------------




----------------------------------------- Iteration    1(   6)  ---------------------------------------


    POTLOK:  cpu time    1.19: real time    1.19
    SETDIJ:  cpu time    1.28: real time    1.28
     EDDAV:  cpu time  666.93: real time  667.50
       DOS:  cpu time    0.02: real time    0.02
    CHARGE:  cpu time   49.42: real time   49.46
    MIXING:  cpu time    0.02: real time    0.02
    --------------------------------------------
      LOOP:  cpu time  718.86: real time  719.48

 eigenvalue-minimisations  : 15429
 total energy-change (2. order) : 0.8251109E+01  (-0.3210949E+01)
 number of electron     512.0000026 magnetization 
 augmentation part      245.5779473 magnetization 

 Broyden mixing:
  rms(total) = 0.56761E+00    rms(broyden)= 0.56757E+00
  rms(prec ) = 0.60765E+00
  weight for this iteration     100.00

 eigenvalues of (default mixing * dielectric matrix)
  average eigenvalue GAMMA=   1.1158
  1.1158

 Free energy of the ion-electron system (eV)
  ---------------------------------------------------
  alpha Z        PSCENC =      4309.77481446
  Ewald energy   TEWEN  =    -68862.23829894
  -1/2 Hartree   DENC   =    -17349.29363898
  -exchange  EXHF       =         0.00000000
  -V(xc)+E(xc)   XCENC  =      2625.13026714
  PAW double counting   =     73962.88130931   -73100.97218313
  entropy T*S    EENTRO =        -0.39293782
  eigenvalues    EBANDS =     -5641.32670248
  atomic energy  EATOM  =     83889.46633811
  ---------------------------------------------------
  free energy    TOTEN  =      -166.97103234 eV

  energy without entropy =     -166.57809451  energy(sigma->0) =     -166.77456343


--------------------------------------------------------------------------------------------------------




----------------------------------------- Iteration    1(   7)  ---------------------------------------


    POTLOK:  cpu time    1.19: real time    1.19
    SETDIJ:  cpu time    1.28: real time    1.28
     EDDAV:  cpu time  665.50: real time  666.08
       DOS:  cpu time    0.02: real time    0.02
    CHARGE:  cpu time   49.39: real time   49.43
    MIXING:  cpu time    0.02: real time    0.02
    --------------------------------------------
      LOOP:  cpu time  717.40: real time  718.03

 eigenvalue-minimisations  : 15384
 total energy-change (2. order) : 0.9557790E-01  (-0.2633370E-01)
 number of electron     512.0000026 magnetization 
 augmentation part      245.4512081 magnetization 

 Broyden mixing:
  rms(total) = 0.33858E+00    rms(broyden)= 0.33857E+00
  rms(prec ) = 0.36319E+00
  weight for this iteration     100.00

 eigenvalues of (default mixing * dielectric matrix)
  average eigenvalue GAMMA=   1.7532
  0.9800  2.5264

 Free energy of the ion-electron system (eV)
  ---------------------------------------------------
  alpha Z        PSCENC =      4309.77481446
  Ewald energy   TEWEN  =    -68862.23829894
  -1/2 Hartree   DENC   =    -17341.64130617
  -exchange  EXHF       =         0.00000000
  -V(xc)+E(xc)   XCENC  =      2624.76379835
  PAW double counting   =     75006.20018807   -74155.32723699
  entropy T*S    EENTRO =        -0.39180641
  eigenvalues    EBANDS =     -5637.48194492
  atomic energy  EATOM  =     83889.46633811
  ---------------------------------------------------
  free energy    TOTEN  =      -166.87545444 eV

  energy without entropy =     -166.48364803  energy(sigma->0) =     -166.67955123


--------------------------------------------------------------------------------------------------------




----------------------------------------- Iteration    1(   8)  ---------------------------------------


    POTLOK:  cpu time    1.19: real time    1.19
    SETDIJ:  cpu time    1.34: real time    1.35
     EDDAV:  cpu time  668.87: real time  669.45
       DOS:  cpu time    0.02: real time    0.02
    CHARGE:  cpu time   49.47: real time   49.51
    MIXING:  cpu time    0.02: real time    0.02
    --------------------------------------------
      LOOP:  cpu time  720.91: real time  721.53

 eigenvalue-minimisations  : 15493
 total energy-change (2. order) : 0.3475352E-01  (-0.5226324E-02)
 number of electron     512.0000026 magnetization 
 augmentation part      245.4858080 magnetization 

 Broyden mixing:
  rms(total) = 0.57653E-01    rms(broyden)= 0.57651E-01
  rms(prec ) = 0.12164E+00
  weight for this iteration     100.00

 eigenvalues of (default mixing * dielectric matrix)
  average eigenvalue GAMMA=   1.2462
  2.5285  0.9802  0.2299

 Free energy of the ion-electron system (eV)
  ---------------------------------------------------
  alpha Z        PSCENC =      4309.77481446
  Ewald energy   TEWEN  =    -68862.23829894
  -1/2 Hartree   DENC   =    -17315.89184575
  -exchange  EXHF       =         0.00000000
  -V(xc)+E(xc)   XCENC  =      2623.61882666
  PAW double counting   =     76473.05848062   -75635.69465215
  entropy T*S    EENTRO =        -0.39110860
  eigenvalues    EBANDS =     -5648.54325533
  atomic energy  EATOM  =     83889.46633811
  ---------------------------------------------------
  free energy    TOTEN  =      -166.84070091 eV

  energy without entropy =     -166.44959231  energy(sigma->0) =     -166.64514661


--------------------------------------------------------------------------------------------------------




----------------------------------------- Iteration    1(   9)  ---------------------------------------


    POTLOK:  cpu time    1.19: real time    1.19
    SETDIJ:  cpu time    1.28: real time    1.28
     EDDAV:  cpu time  674.31: real time  674.91
       DOS:  cpu time    0.02: real time    0.02
    CHARGE:  cpu time   49.44: real time   49.48
    MIXING:  cpu time    0.03: real time    0.03
    --------------------------------------------
      LOOP:  cpu time  726.26: real time  726.91

 eigenvalue-minimisations  : 15664
 total energy-change (2. order) : 0.3314865E-02  (-0.8896003E-03)
 number of electron     512.0000026 magnetization 
 augmentation part      245.4888550 magnetization 

 Broyden mixing:
  rms(total) = 0.10304E-01    rms(broyden)= 0.10300E-01
  rms(prec ) = 0.18405E-01
  weight for this iteration     100.00

 eigenvalues of (default mixing * dielectric matrix)
  average eigenvalue GAMMA=   1.0794
  2.5271  0.9809  0.6002  0.2093

 Free energy of the ion-electron system (eV)
  ---------------------------------------------------
  alpha Z        PSCENC =      4309.77481446
  Ewald energy   TEWEN  =    -68862.23829894
  -1/2 Hartree   DENC   =    -17315.95701494
  -exchange  EXHF       =         0.00000000
  -V(xc)+E(xc)   XCENC  =      2623.62158667
  PAW double counting   =     76481.81365260   -75644.19221245
  entropy T*S    EENTRO =        -0.39117153
  eigenvalues    EBANDS =     -5648.73508002
  atomic energy  EATOM  =     83889.46633811
  ---------------------------------------------------
  free energy    TOTEN  =      -166.83738605 eV

  energy without entropy =     -166.44621452  energy(sigma->0) =     -166.64180028


--------------------------------------------------------------------------------------------------------




----------------------------------------- Iteration    1(  10)  ---------------------------------------


    POTLOK:  cpu time    1.21: real time    1.22
    SETDIJ:  cpu time    1.27: real time    1.27
     EDDAV:  cpu time  723.77: real time  724.41
       DOS:  cpu time    0.02: real time    0.02
    CHARGE:  cpu time   49.45: real time   49.49
    MIXING:  cpu time    0.02: real time    0.03
    --------------------------------------------
      LOOP:  cpu time  775.74: real time  776.44

 eigenvalue-minimisations  : 17229
 total energy-change (2. order) : 0.2227447E-04  (-0.9701160E-04)
 number of electron     512.0000026 magnetization 
 augmentation part      245.4921112 magnetization 

 Broyden mixing:
  rms(total) = 0.79580E-02    rms(broyden)= 0.79572E-02
  rms(prec ) = 0.12813E-01
  weight for this iteration     100.00

 eigenvalues of (default mixing * dielectric matrix)
  average eigenvalue GAMMA=   1.0268
  2.5231  1.1829  0.9762  0.2573  0.1944

 Free energy of the ion-electron system (eV)
  ---------------------------------------------------
  alpha Z        PSCENC =      4309.77481446
  Ewald energy   TEWEN  =    -68862.23829894
  -1/2 Hartree   DENC   =    -17316.27252312
  -exchange  EXHF       =         0.00000000
  -V(xc)+E(xc)   XCENC  =      2623.63546266
  PAW double counting   =     76488.28445494   -75650.14546608
  entropy T*S    EENTRO =        -0.39114722
  eigenvalues    EBANDS =     -5648.95099857
  atomic energy  EATOM  =     83889.46633811
  ---------------------------------------------------
  free energy    TOTEN  =      -166.83736377 eV

  energy without entropy =     -166.44621655  energy(sigma->0) =     -166.64179016


--------------------------------------------------------------------------------------------------------




----------------------------------------- Iteration    1(  11)  ---------------------------------------


    POTLOK:  cpu time    1.18: real time    1.19
    SETDIJ:  cpu time    1.27: real time    1.27
     EDDAV:  cpu time  668.49: real time  669.07
       DOS:  cpu time    0.02: real time    0.02
    CHARGE:  cpu time   49.38: real time   49.42
    MIXING:  cpu time    0.03: real time    0.03
    --------------------------------------------
      LOOP:  cpu time  720.37: real time  721.00

 eigenvalue-minimisations  : 15472
 total energy-change (2. order) : 0.6343669E-04  (-0.1623091E-04)
 number of electron     512.0000026 magnetization 
 augmentation part      245.4976923 magnetization 

 Broyden mixing:
  rms(total) = 0.43424E-02    rms(broyden)= 0.43423E-02
  rms(prec ) = 0.59735E-02
  weight for this iteration     100.00

 eigenvalues of (default mixing * dielectric matrix)
  average eigenvalue GAMMA=   1.1797
  2.5293  2.1036  1.0017  1.0017  0.2499  0.1923

 Free energy of the ion-electron system (eV)
  ---------------------------------------------------
  alpha Z        PSCENC =      4309.77481446
  Ewald energy   TEWEN  =    -68862.23829894
  -1/2 Hartree   DENC   =    -17317.12222367
  -exchange  EXHF       =         0.00000000
  -V(xc)+E(xc)   XCENC  =      2623.67294047
  PAW double counting   =     76503.63252766   -75664.29133687
  entropy T*S    EENTRO =        -0.39108931
  eigenvalues    EBANDS =     -5649.34097225
  atomic energy  EATOM  =     83889.46633811
  ---------------------------------------------------
  free energy    TOTEN  =      -166.83730034 eV

  energy without entropy =     -166.44621103  energy(sigma->0) =     -166.64175568


--------------------------------------------------------------------------------------------------------




----------------------------------------- Iteration    1(  12)  ---------------------------------------


    POTLOK:  cpu time    1.18: real time    1.19
    SETDIJ:  cpu time    1.35: real time    1.35
     EDDAV:  cpu time  670.78: real time  671.36
       DOS:  cpu time    0.02: real time    0.02
    CHARGE:  cpu time   49.45: real time   49.49
    MIXING:  cpu time    0.03: real time    0.03
    --------------------------------------------
      LOOP:  cpu time  722.81: real time  723.44

 eigenvalue-minimisations  : 15549
 total energy-change (2. order) : 0.9886979E-05  (-0.9798249E-05)
 number of electron     512.0000026 magnetization 
 augmentation part      245.4969702 magnetization 

 Broyden mixing:
  rms(total) = 0.50983E-02    rms(broyden)= 0.50982E-02
  rms(prec ) = 0.99645E-02
  weight for this iteration     100.00

 eigenvalues of (default mixing * dielectric matrix)
  average eigenvalue GAMMA=   1.0946
  2.5467  2.3789  1.0466  0.9961  0.1928  0.2646  0.2365

 Free energy of the ion-electron system (eV)
  ---------------------------------------------------
  alpha Z        PSCENC =      4309.77481446
  Ewald energy   TEWEN  =    -68862.23829894
  -1/2 Hartree   DENC   =    -17318.39009043
  -exchange  EXHF       =         0.00000000
  -V(xc)+E(xc)   XCENC  =      2623.72867002
  PAW double counting   =     76521.46541485   -75681.00044493
  entropy T*S    EENTRO =        -0.39104341
  eigenvalues    EBANDS =     -5649.25265019
  atomic energy  EATOM  =     83889.46633811
  ---------------------------------------------------
  free energy    TOTEN  =      -166.83729045 eV

  energy without entropy =     -166.44624704  energy(sigma->0) =     -166.64176875


--------------------------------------------------------------------------------------------------------




----------------------------------------- Iteration    1(  13)  ---------------------------------------


    POTLOK:  cpu time    1.18: real time    1.19
    SETDIJ:  cpu time    1.27: real time    1.27
     EDDAV:  cpu time  674.17: real time  674.75
       DOS:  cpu time    0.02: real time    0.02
    CHARGE:  cpu time   49.47: real time   49.51
    MIXING:  cpu time    0.03: real time    0.03
    --------------------------------------------
      LOOP:  cpu time  726.13: real time  726.78

 eigenvalue-minimisations  : 15656
 total energy-change (2. order) : 0.4825932E-04  (-0.6781160E-05)
 number of electron     512.0000026 magnetization 
 augmentation part      245.4962378 magnetization 

 Broyden mixing:
  rms(total) = 0.14008E-02    rms(broyden)= 0.14005E-02
  rms(prec ) = 0.26652E-02
  weight for this iteration     100.00

 eigenvalues of (default mixing * dielectric matrix)
  average eigenvalue GAMMA=   1.0296
  2.5598  2.4271  1.0768  0.9907  0.5265  0.2489  0.1921  0.2149

 Free energy of the ion-electron system (eV)
  ---------------------------------------------------
  alpha Z        PSCENC =      4309.77481446
  Ewald energy   TEWEN  =    -68862.23829894
  -1/2 Hartree   DENC   =    -17318.92870083
  -exchange  EXHF       =         0.00000000
  -V(xc)+E(xc)   XCENC  =      2623.75234720
  PAW double counting   =     76528.76560899   -75687.85011627
  entropy T*S    EENTRO =        -0.39102726
  eigenvalues    EBANDS =     -5649.18820766
  atomic energy  EATOM  =     83889.46633811
  ---------------------------------------------------
  free energy    TOTEN  =      -166.83724219 eV

  energy without entropy =     -166.44621493  energy(sigma->0) =     -166.64172856


--------------------------------------------------------------------------------------------------------




----------------------------------------- Iteration    1(  14)  ---------------------------------------


    POTLOK:  cpu time    1.18: real time    1.19
    SETDIJ:  cpu time    1.27: real time    1.27
     EDDAV:  cpu time  681.87: real time  682.48
       DOS:  cpu time    0.02: real time    0.02
    CHARGE:  cpu time   49.44: real time   49.49
    MIXING:  cpu time    0.03: real time    0.03
    --------------------------------------------
      LOOP:  cpu time  733.82: real time  734.54

 eigenvalue-minimisations  : 15896
 total energy-change (2. order) : 0.5750000E-05  (-0.1248054E-05)
 number of electron     512.0000026 magnetization 
 augmentation part      245.4960059 magnetization 

 Broyden mixing:
  rms(total) = 0.69062E-03    rms(broyden)= 0.69047E-03
  rms(prec ) = 0.12221E-02
  weight for this iteration     100.00

 eigenvalues of (default mixing * dielectric matrix)
  average eigenvalue GAMMA=   1.0036
  2.5749  2.4524  1.1932  0.9794  0.8814  0.3055  0.2485  0.1919  0.2051

 Free energy of the ion-electron system (eV)
  ---------------------------------------------------
  alpha Z        PSCENC =      4309.77481446
  Ewald energy   TEWEN  =    -68862.23829894
  -1/2 Hartree   DENC   =    -17319.01404326
  -exchange  EXHF       =         0.00000000
  -V(xc)+E(xc)   XCENC  =      2623.75611323
  PAW double counting   =     76529.80457538   -75688.82200693
  entropy T*S    EENTRO =        -0.39102708
  eigenvalues    EBANDS =     -5649.17370141
  atomic energy  EATOM  =     83889.46633811
  ---------------------------------------------------
  free energy    TOTEN  =      -166.83723644 eV

  energy without entropy =     -166.44620936  energy(sigma->0) =     -166.64172290


--------------------------------------------------------------------------------------------------------




----------------------------------------- Iteration    1(  15)  ---------------------------------------


    POTLOK:  cpu time    1.18: real time    1.19
    SETDIJ:  cpu time    1.27: real time    1.28
     EDDAV:  cpu time  672.19: real time  672.77
       DOS:  cpu time    0.02: real time    0.02
    CHARGE:  cpu time   49.45: real time   49.49
    MIXING:  cpu time    0.03: real time    0.03
    --------------------------------------------
      LOOP:  cpu time  724.14: real time  724.78

 eigenvalue-minimisations  : 15592
 total energy-change (2. order) : 0.2317189E-05  (-0.2805876E-06)
 number of electron     512.0000026 magnetization 
 augmentation part      245.4959704 magnetization 

 Broyden mixing:
  rms(total) = 0.40129E-03    rms(broyden)= 0.40113E-03
  rms(prec ) = 0.72803E-03
  weight for this iteration     100.00

 eigenvalues of (default mixing * dielectric matrix)
  average eigenvalue GAMMA=   0.9421
  2.5790  2.4565  1.2274  0.9776  0.8802  0.3736  0.2804  0.2518  0.1927  0.2024

 Free energy of the ion-electron system (eV)
  ---------------------------------------------------
  alpha Z        PSCENC =      4309.77481446
  Ewald energy   TEWEN  =    -68862.23829894
  -1/2 Hartree   DENC   =    -17319.04311997
  -exchange  EXHF       =         0.00000000
  -V(xc)+E(xc)   XCENC  =      2623.75742889
  PAW double counting   =     76530.10499149   -75689.09699804
  entropy T*S    EENTRO =        -0.39102961
  eigenvalues    EBANDS =     -5649.17136050
  atomic energy  EATOM  =     83889.46633811
  ---------------------------------------------------
  free energy    TOTEN  =      -166.83723412 eV

  energy without entropy =     -166.44620451  energy(sigma->0) =     -166.64171932


--------------------------------------------------------------------------------------------------------




----------------------------------------- Iteration    1(  16)  ---------------------------------------


    POTLOK:  cpu time    1.18: real time    1.19
    SETDIJ:  cpu time    1.27: real time    1.27
     EDDAV:  cpu time  671.93: real time  672.52
       DOS:  cpu time    0.02: real time    0.02
    CHARGE:  cpu time   49.47: real time   49.51
    MIXING:  cpu time    0.03: real time    0.03
    --------------------------------------------
      LOOP:  cpu time  723.90: real time  724.54

 eigenvalue-minimisations  : 15581
 total energy-change (2. order) : 0.3146270E-06  (-0.6278369E-07)
 number of electron     512.0000026 magnetization 
 augmentation part      245.4960080 magnetization 

 Broyden mixing:
  rms(total) = 0.20156E-03    rms(broyden)= 0.20126E-03
  rms(prec ) = 0.32271E-03
  weight for this iteration     100.00

 eigenvalues of (default mixing * dielectric matrix)
  average eigenvalue GAMMA=   0.9783
  2.6041  2.4712  1.5663  0.9773  0.9861  0.9861  0.3096  0.2494  0.1922  0.2010
  0.2176

 Free energy of the ion-electron system (eV)
  ---------------------------------------------------
  alpha Z        PSCENC =      4309.77481446
  Ewald energy   TEWEN  =    -68862.23829894
  -1/2 Hartree   DENC   =    -17319.04145701
  -exchange  EXHF       =         0.00000000
  -V(xc)+E(xc)   XCENC  =      2623.75737107
  PAW double counting   =     76530.07020809   -75689.06158385
  entropy T*S    EENTRO =        -0.39103035
  eigenvalues    EBANDS =     -5649.17359538
  atomic energy  EATOM  =     83889.46633811
  ---------------------------------------------------
  free energy    TOTEN  =      -166.83723381 eV

  energy without entropy =     -166.44620346  energy(sigma->0) =     -166.64171863


--------------------------------------------------------------------------------------------------------




----------------------------------------- Iteration    1(  17)  ---------------------------------------


    POTLOK:  cpu time    1.18: real time    1.19
    SETDIJ:  cpu time    1.27: real time    1.27
     EDDAV:  cpu time  701.40: real time  702.02
       DOS:  cpu time    0.02: real time    0.02
    CHARGE:  cpu time   59.15: real time   59.21
    MIXING:  cpu time    0.04: real time    0.04
    --------------------------------------------
      LOOP:  cpu time  763.07: real time  763.81

 eigenvalue-minimisations  : 15464
 total energy-change (2. order) : 0.1252920E-06  (-0.2748977E-07)
 number of electron     512.0000026 magnetization 
 augmentation part      245.4961116 magnetization 

 Broyden mixing:
  rms(total) = 0.18423E-03    rms(broyden)= 0.18392E-03
  rms(prec ) = 0.31923E-03
  weight for this iteration     100.00

 eigenvalues of (default mixing * dielectric matrix)
  average eigenvalue GAMMA=   0.9501
  2.6212  2.4801  1.7956  0.9794  1.0165  1.0165  0.3353  0.3027  0.2498  0.1921
  0.2118  0.2000

 Free energy of the ion-electron system (eV)
  ---------------------------------------------------
  alpha Z        PSCENC =      4309.77481446
  Ewald energy   TEWEN  =    -68862.23829894
  -1/2 Hartree   DENC   =    -17319.02757245
  -exchange  EXHF       =         0.00000000
  -V(xc)+E(xc)   XCENC  =      2623.75681078
  PAW double counting   =     76529.84526103   -75688.84175534
  entropy T*S    EENTRO =        -0.39103203
  eigenvalues    EBANDS =     -5649.18179930
  atomic energy  EATOM  =     83889.46633811
  ---------------------------------------------------
  free energy    TOTEN  =      -166.83723368 eV

  energy without entropy =     -166.44620165  energy(sigma->0) =     -166.64171767


--------------------------------------------------------------------------------------------------------




----------------------------------------- Iteration    1(  18)  ---------------------------------------


    POTLOK:  cpu time    1.45: real time    1.45
    SETDIJ:  cpu time    1.57: real time    1.57
     EDDAV:  cpu time  726.42: real time  727.08
       DOS:  cpu time    0.02: real time    0.02
    CHARGE:  cpu time   58.36: real time   58.41
    MIXING:  cpu time    0.04: real time    0.04
    --------------------------------------------
      LOOP:  cpu time  787.85: real time  788.58

 eigenvalue-minimisations  : 14197
 total energy-change (2. order) :-0.1770968E-07  (-0.1392499E-07)
 number of electron     512.0000026 magnetization 
 augmentation part      245.4961443 magnetization 

 Broyden mixing:
  rms(total) = 0.58893E-04    rms(broyden)= 0.57936E-04
  rms(prec ) = 0.85700E-04
  weight for this iteration     100.00

 eigenvalues of (default mixing * dielectric matrix)
  average eigenvalue GAMMA=   0.9851
  2.6239  2.4986  2.0687  1.2387  1.0121  1.0121  0.9100  0.3154  0.2761  0.2492
  0.1923  0.2102  0.1985

 Free energy of the ion-electron system (eV)
  ---------------------------------------------------
  alpha Z        PSCENC =      4309.77481446
  Ewald energy   TEWEN  =    -68862.23829894
  -1/2 Hartree   DENC   =    -17319.02100075
  -exchange  EXHF       =         0.00000000
  -V(xc)+E(xc)   XCENC  =      2623.75654208
  PAW double counting   =     76529.71695632   -75688.71705651
  entropy T*S    EENTRO =        -0.39103253
  eigenvalues    EBANDS =     -5649.18449594
  atomic energy  EATOM  =     83889.46633811
  ---------------------------------------------------
  free energy    TOTEN  =      -166.83723370 eV

  energy without entropy =     -166.44620117  energy(sigma->0) =     -166.64171744


--------------------------------------------------------------------------------------------------------




----------------------------------------- Iteration    1(  19)  ---------------------------------------


    POTLOK:  cpu time    1.44: real time    1.44
    SETDIJ:  cpu time    1.56: real time    1.56
     EDDAV:  cpu time  528.49: real time  528.95
       DOS:  cpu time    0.02: real time    0.02
    CHARGE:  cpu time   58.02: real time   58.07
    MIXING:  cpu time    0.04: real time    0.04
    --------------------------------------------
      LOOP:  cpu time  589.56: real time  590.09

 eigenvalue-minimisations  :  8832
 total energy-change (2. order) :-0.2672896E-06  (-0.2815393E-08)
 number of electron     512.0000026 magnetization 
 augmentation part      245.4961527 magnetization 

 Broyden mixing:
  rms(total) = 0.82118E-04    rms(broyden)= 0.81439E-04
  rms(prec ) = 0.16620E-03
  weight for this iteration     100.00

 eigenvalues of (default mixing * dielectric matrix)
  average eigenvalue GAMMA=   0.9592
  2.6230  2.5269  2.2623  1.3928  0.9976  0.9976  0.9507  0.3158  0.2864  0.2490
  0.1922  0.1999  0.2083  0.2264

 Free energy of the ion-electron system (eV)
  ---------------------------------------------------
  alpha Z        PSCENC =      4309.77481446
  Ewald energy   TEWEN  =    -68862.23829894
  -1/2 Hartree   DENC   =    -17319.01443352
  -exchange  EXHF       =         0.00000000
  -V(xc)+E(xc)   XCENC  =      2623.75626798
  PAW double counting   =     76529.54702841   -75688.55278414
  entropy T*S    EENTRO =        -0.39103238
  eigenvalues    EBANDS =     -5649.18513395
  atomic energy  EATOM  =     83889.46633811
  ---------------------------------------------------
  free energy    TOTEN  =      -166.83723397 eV

  energy without entropy =     -166.44620159  energy(sigma->0) =     -166.64171778


--------------------------------------------------------------------------------------------------------




----------------------------------------- Iteration    1(  20)  ---------------------------------------


    POTLOK:  cpu time    1.43: real time    1.43
    SETDIJ:  cpu time    1.54: real time    1.54
     EDDAV:  cpu time  505.39: real time  505.84
       DOS:  cpu time    0.02: real time    0.02
    CHARGE:  cpu time   55.64: real time   55.69
    MIXING:  cpu time    0.04: real time    0.04
    --------------------------------------------
      LOOP:  cpu time  564.06: real time  564.56

 eigenvalue-minimisations  :  8405
 total energy-change (2. order) :-0.2190209E-06  (-0.1773891E-08)
 number of electron     512.0000026 magnetization 
 augmentation part      245.4961533 magnetization 

 Broyden mixing:
  rms(total) = 0.25171E-04    rms(broyden)= 0.22863E-04
  rms(prec ) = 0.41288E-04
  weight for this iteration     100.00

 eigenvalues of (default mixing * dielectric matrix)
  average eigenvalue GAMMA=   0.9586
  2.6085  2.6085  2.4239  1.4510  0.9914  0.9914  0.9541  0.6980  0.3171  0.2804
  0.2494  0.1923  0.2116  0.1975  0.2043

 Free energy of the ion-electron system (eV)
  ---------------------------------------------------
  alpha Z        PSCENC =      4309.77481446
  Ewald energy   TEWEN  =    -68862.23829894
  -1/2 Hartree   DENC   =    -17319.00931950
  -exchange  EXHF       =         0.00000000
  -V(xc)+E(xc)   XCENC  =      2623.75605374
  PAW double counting   =     76529.41652718   -75688.42679934
  entropy T*S    EENTRO =        -0.39103225
  eigenvalues    EBANDS =     -5649.18551765
  atomic energy  EATOM  =     83889.46633811
  ---------------------------------------------------
  free energy    TOTEN  =      -166.83723419 eV

  energy without entropy =     -166.44620194  energy(sigma->0) =     -166.64171806


--------------------------------------------------------------------------------------------------------




----------------------------------------- Iteration    1(  21)  ---------------------------------------


    POTLOK:  cpu time    1.37: real time    1.37
    SETDIJ:  cpu time    1.46: real time    1.47
     EDDAV:  cpu time  476.47: real time  476.89
       DOS:  cpu time    0.02: real time    0.02
    CHARGE:  cpu time   55.82: real time   55.87
    MIXING:  cpu time    0.04: real time    0.04
    --------------------------------------------
      LOOP:  cpu time  535.18: real time  535.67

 eigenvalue-minimisations  :  7936
 total energy-change (2. order) :-0.9998621E-07  (-0.4094141E-09)
 number of electron     512.0000026 magnetization 
 augmentation part      245.4961572 magnetization 

 Broyden mixing:
  rms(total) = 0.22350E-04    rms(broyden)= 0.19717E-04
  rms(prec ) = 0.35550E-04
  weight for this iteration     100.00
  WARNING: grid for Broyden might be to small

 eigenvalues of (default mixing * dielectric matrix)
  average eigenvalue GAMMA=   0.9571
  2.7975  2.6500  2.4740  1.5014  1.0332  1.0332  0.9711  0.9463  0.3179  0.2859
  0.2496  0.2550  0.2106  0.2004  0.1923  0.1946

 Free energy of the ion-electron system (eV)
  ---------------------------------------------------
  alpha Z        PSCENC =      4309.77481446
  Ewald energy   TEWEN  =    -68862.23829894
  -1/2 Hartree   DENC   =    -17319.00729170
  -exchange  EXHF       =         0.00000000
  -V(xc)+E(xc)   XCENC  =      2623.75596785
  PAW double counting   =     76529.37530227   -75688.38724439
  entropy T*S    EENTRO =        -0.39103222
  eigenvalues    EBANDS =     -5649.18578972
  atomic energy  EATOM  =     83889.46633811
  ---------------------------------------------------
  free energy    TOTEN  =      -166.83723429 eV

  energy without entropy =     -166.44620207  energy(sigma->0) =     -166.64171818


--------------------------------------------------------------------------------------------------------




----------------------------------------- Iteration    1(  22)  ---------------------------------------


    POTLOK:  cpu time    1.37: real time    1.37
    SETDIJ:  cpu time    1.47: real time    1.47
     EDDAV:  cpu time  473.20: real time  473.62
       DOS:  cpu time    0.02: real time    0.02
    CHARGE:  cpu time   51.67: real time   51.71
    MIXING:  cpu time    0.04: real time    0.04
    --------------------------------------------
      LOOP:  cpu time  527.77: real time  528.23

 eigenvalue-minimisations  :  7917
 total energy-change (2. order) :-0.1252338E-06  (-0.1507168E-09)
 number of electron     512.0000026 magnetization 
 augmentation part      245.4961585 magnetization 

 Broyden mixing:
  rms(total) = 0.12029E-04    rms(broyden)= 0.58304E-05
  rms(prec ) = 0.96923E-05
  weight for this iteration     100.00
  WARNING: grid for Broyden might be to small

 eigenvalues of (default mixing * dielectric matrix)
  average eigenvalue GAMMA=   0.9388
  2.8216  2.6478  2.4729  1.5046  1.0538  1.0538  0.9723  0.9324  0.5986  0.3173
  0.2845  0.2491  0.2540  0.2107  0.1923  0.1995  0.1949

 Free energy of the ion-electron system (eV)
  ---------------------------------------------------
  alpha Z        PSCENC =      4309.77481446
  Ewald energy   TEWEN  =    -68862.23829894
  -1/2 Hartree   DENC   =    -17319.00489783
  -exchange  EXHF       =         0.00000000
  -V(xc)+E(xc)   XCENC  =      2623.75586632
  PAW double counting   =     76529.32791830   -75688.34183409
  entropy T*S    EENTRO =        -0.39103217
  eigenvalues    EBANDS =     -5649.18610857
  atomic energy  EATOM  =     83889.46633811
  ---------------------------------------------------
  free energy    TOTEN  =      -166.83723441 eV

  energy without entropy =     -166.44620224  energy(sigma->0) =     -166.64171833


--------------------------------------------------------------------------------------------------------




----------------------------------------- Iteration    1(  23)  ---------------------------------------


    POTLOK:  cpu time    1.24: real time    1.25
    SETDIJ:  cpu time    1.38: real time    1.38
     EDDAV:  cpu time  442.60: real time  443.00
       DOS:  cpu time    0.02: real time    0.02
    --------------------------------------------
      LOOP:  cpu time  445.23: real time  445.65

 eigenvalue-minimisations  :  7858
 total energy-change (2. order) :-0.1266017E-08  (-0.4239148E-10)
 number of electron     512.0000026 magnetization 
 augmentation part      245.4961585 magnetization 

 Free energy of the ion-electron system (eV)
  ---------------------------------------------------
  alpha Z        PSCENC =      4309.77481446
  Ewald energy   TEWEN  =    -68862.23829894
  -1/2 Hartree   DENC   =    -17319.00495100
  -exchange  EXHF       =         0.00000000
  -V(xc)+E(xc)   XCENC  =      2623.75586865
  PAW double counting   =     76529.32806492   -75688.34193204
  entropy T*S    EENTRO =        -0.39103216
  eigenvalues    EBANDS =     -5649.18610641
  atomic energy  EATOM  =     83889.46633811
  ---------------------------------------------------
  free energy    TOTEN  =      -166.83723441 eV

  energy without entropy =     -166.44620225  energy(sigma->0) =     -166.64171833


--------------------------------------------------------------------------------------------------------




 average (electrostatic) potential at core
  the test charge radii are     1.0504
  (the norm of the test charge is              1.0000)
       1 -74.7093       2 -74.7092       3 -74.7092       4 -74.7092       5 -74.7111
       6 -74.7091       7 -74.7091       8 -74.7110       9 -74.7092      10 -74.7092
      11 -74.7092      12 -74.7092      13 -74.7074      14 -74.7075      15 -74.7094
      16 -74.7093      17 -74.7110      18 -74.7091      19 -74.7091      20 -74.7111
      21 -74.7092      22 -74.7092      23 -74.7092      24 -74.7092      25 -74.7093
      26 -74.7094      27 -74.7075      28 -74.7074      29 -74.7092      30 -74.7092
      31 -74.7092      32 -74.7092
 
 
 
 E-fermi :   9.1849     XC(G=0): -13.1994     alpha+bet :-16.1055


 k-point   1 :       0.2500    0.1250    0.9167
  band No.  band energies     occupation 
      1     -40.7695      2.00000
      2     -40.7622      2.00000
      3     -40.7598      2.00000
      4     -40.7568      2.00000
      5     -40.7468      2.00000
      6     -40.7429      2.00000
      7     -40.7418      2.00000
      8     -40.7069      2.00000
      9     -40.6946      2.00000
     10     -40.6912      2.00000
     11     -40.6901      2.00000
     12     -40.6885      2.00000
     13     -40.6878      2.00000
     14     -40.6863      2.00000
     15     -40.6816      2.00000
     16     -40.6811      2.00000
     17     -40.6809      2.00000
     18     -40.6776      2.00000
     19     -40.6740      2.00000
     20     -40.6710      2.00000
     21     -40.6705      2.00000
     22     -40.6686      2.00000
     23     -40.6684      2.00000
     24     -40.6547      2.00000
     25     -40.6478      2.00000
     26     -40.6376      2.00000
     27     -40.6366      2.00000
     28     -40.6351      2.00000
     29     -40.6271      2.00000
     30     -40.6244      2.00000
     31     -40.6239      2.00000
     32     -40.6234      2.00000
     33     -40.6117      2.00000
     34     -40.6108      2.00000
     35     -40.6093      2.00000
     36     -40.5941      2.00000
     37     -40.5811      2.00000
     38     -40.5764      2.00000
     39     -40.5743      2.00000
     40     -40.5651      2.00000
     41     -40.5634      2.00000
     42     -40.5554      2.00000
     43     -40.5547      2.00000
     44     -40.5456      2.00000
     45     -40.5436      2.00000
     46     -40.5426      2.00000
     47     -40.5422      2.00000
     48     -40.5418      2.00000
     49     -40.5409      2.00000
     50     -40.5392      2.00000
     51     -40.5343      2.00000
     52     -40.5331      2.00000
     53     -40.5320      2.00000
     54     -40.5306      2.00000
     55     -40.5300      2.00000
     56     -40.5294      2.00000
     57     -40.5276      2.00000
     58     -40.5255      2.00000
     59     -40.5154      2.00000
     60     -40.5125      2.00000
     61     -40.5110      2.00000
     62     -40.5055      2.00000
     63     -40.4944      2.00000
     64     -40.4938      2.00000
     65     -40.4832      2.00000
     66     -40.4828      2.00000
     67     -40.4799      2.00000
     68     -40.4793      2.00000
     69     -40.4791      2.00000
     70     -40.4788      2.00000
     71     -40.4772      2.00000
     72     -40.4743      2.00000
     73     -40.4722      2.00000
     74     -40.4704      2.00000
     75     -40.4675      2.00000
     76     -40.4668      2.00000
     77     -40.4664      2.00000
     78     -40.4645      2.00000
     79     -40.4642      2.00000
     80     -40.4625      2.00000
     81     -40.4615      2.00000
     82     -40.4615      2.00000
     83     -40.4607      2.00000
     84     -40.4598      2.00000
     85     -40.4590      2.00000
     86     -40.4578      2.00000
     87     -40.4529      2.00000
     88     -40.4493      2.00000
     89     -40.4489      2.00000
     90     -40.4446      2.00000
     91     -40.4428      2.00000
     92     -40.4407      2.00000
     93     -40.4393      2.00000
     94     -40.4289      2.00000
     95     -40.4106      2.00000
     96     -40.4038      2.00000
     97       2.4895      2.00000
     98       3.7743      2.00000
     99       4.1403      2.00000
    100       4.1608      2.00000
    101       4.1624      2.00000
    102       4.1626      2.00000
    103       4.2303      2.00000
    104       4.2481      2.00000
    105       4.2523      2.00000
    106       4.2739      2.00000
    107       4.3681      2.00000
    108       4.3961      2.00000
    109       4.4227      2.00000
    110       4.4352      2.00000
    111       4.5808      2.00000
    112       4.6563      2.00000
    113       4.6786      2.00000
    114       4.8531      2.00000
    115       4.8623      2.00000
    116       4.8726      2.00000
    117       4.9113      2.00000
    118       4.9791      2.00000
    119       4.9866      2.00000
    120       4.9948      2.00000
    121       5.0451      2.00000
    122       5.0649      2.00000
    123       5.0920      2.00000
    124       5.1010      2.00000
    125       5.1223      2.00000
    126       5.1434      2.00000
    127       5.1557      2.00000
    128       5.2004      2.00000
    129       5.2435      2.00000
    130       5.2492      2.00000
    131       5.2615      2.00000
    132       5.3012      2.00000
    133       5.3124      2.00000
    134       5.3305      2.00000
    135       5.4249      2.00000
    136       5.5008      2.00000
    137       5.5129      2.00000
    138       5.5468      2.00000
    139       5.5855      2.00000
    140       5.5865      2.00000
    141       5.6598      2.00000
    142       5.6732      2.00000
    143       5.7189      2.00000
    144       5.7857      2.00000
    145       5.8223      2.00000
    146       5.8276      2.00000
    147       5.8387      2.00000
    148       5.8846      2.00000
    149       5.9076      2.00000
    150       5.9209      2.00000
    151       5.9371      2.00000
    152       5.9563      2.00000
    153       5.9592      2.00000
    154       6.0350      2.00000
    155       6.1053      2.00000
    156       6.1069      2.00000
    157       6.1309      2.00000
    158       6.1614      2.00000
    159       6.1730      2.00000
    160       6.2288      2.00000
    161       6.2408      2.00000
    162       6.2642      2.00000
    163       6.2791      2.00000
    164       6.2845      2.00000
    165       6.3100      2.00000
    166       6.3297      2.00000
    167       6.3411      2.00000
    168       6.3562      2.00000
    169       6.3610      2.00000
    170       6.4519      2.00000
    171       6.4540      2.00000
    172       6.4943      2.00000
    173       6.5083      2.00000
    174       6.5216      2.00000
    175       6.5524      2.00000
    176       6.5540      2.00000
    177       6.5577      2.00000
    178       6.5668      2.00000
    179       6.5695      2.00000
    180       6.5801      2.00000
    181       6.6163      2.00000
    182       6.6968      2.00000
    183       6.7904      2.00000
    184       6.8056      2.00000
    185       6.8905      2.00000
    186       6.9115      2.00000
    187       7.0179      2.00000
    188       7.0413      2.00000
    189       7.0541      2.00000
    190       7.1202      2.00000
    191       7.1655      2.00000
    192       7.2075      2.00000
    193       7.2338      2.00000
    194       7.2404      2.00000
    195       7.2734      2.00000
    196       7.3035      2.00000
    197       7.3792      2.00000
    198       7.4137      2.00000
    199       7.5069      2.00000
    200       7.5167      2.00000
    201       7.5359      2.00000
    202       7.5886      2.00000
    203       7.6012      2.00000
    204       7.6492      2.00000
    205       7.6648      2.00000
    206       7.6961      2.00000
    207       7.7377      2.00000
    208       7.8088      2.00000
    209       7.8106      2.00000
    210       7.8312      2.00000
    211       7.8931      2.00000
    212       7.9144      2.00000
    213       7.9293      2.00000
    214       7.9532      2.00000
    215       7.9643      2.00000
    216       7.9925      2.00000
    217       8.0058      2.00000
    218       8.0341      2.00000
    219       8.0954      2.00000
    220       8.1078      2.00000
    221       8.1083      2.00000
    222       8.1494      2.00000
    223       8.1616      2.00000
    224       8.1963      2.00000
    225       8.2482      2.00000
    226       8.2711      2.00000
    227       8.3087      2.00000
    228       8.3376      2.00000
    229       8.3539      2.00000
    230       8.3595      2.00000
    231       8.4075      2.00000
    232       8.4197      2.00000
    233       8.4518      2.00000
    234       8.4556      2.00000
    235       8.4624      2.00000
    236       8.4760      2.00000
    237       8.4849      2.00000
    238       8.5542      2.00000
    239       8.6058      2.00000
    240       8.6547      2.00000
    241       8.7875      2.00000
    242       8.7876      2.00000
    243       8.7950      2.00000
    244       8.8830      1.99998
    245       8.9370      1.99954
    246       8.9641      1.99820
    247       8.9748      1.99703
    248       8.9846      1.99537
    249       8.9947      1.99285
    250       8.9960      1.99244
    251       9.0830      1.85033
    252       9.1215      1.63004
    253       9.1264      1.59140
    254       9.1272      1.58555
    255       9.2635      0.26636
    256       9.2643      0.26101
    257       9.2728      0.21390
    258       9.2749      0.20309
    259       9.3245      0.04838
    260       9.4018      0.00216
    261       9.4033      0.00201
    262       9.4109      0.00139
    263       9.4111      0.00138
    264       9.8214      0.00000
    265       9.8986      0.00000
    266      10.0370      0.00000
    267      10.4580      0.00000
    268      10.7339      0.00000
    269      10.7571      0.00000
    270      10.9408      0.00000
    271      11.0764      0.00000
    272      11.2312      0.00000
    273      11.4096      0.00000
    274      11.6363      0.00000
    275      11.9647      0.00000
    276      12.1689      0.00000
    277      12.3619      0.00000
    278      12.4415      0.00000
    279      13.0563      0.00000
    280      13.1789      0.00000
    281      13.2712      0.00000
    282      13.3991      0.00000
    283      15.7527      0.00000
    284      15.9265      0.00000
    285      15.9995      0.00000
    286      16.1808      0.00000
    287      16.3065      0.00000
    288      16.5840      0.00000
    289      16.8028      0.00000
    290      16.8349      0.00000
    291      16.9905      0.00000
    292      17.2357      0.00000
    293      17.2422      0.00000
    294      17.4836      0.00000
    295      18.1049      0.00000
    296      18.6019      0.00000
    297      18.6552      0.00000
    298      18.6763      0.00000
    299      19.0590      0.00000
    300      19.0624      0.00000
    301      19.1962      0.00000
    302      19.4105      0.00000
    303      19.7693      0.00000
    304      19.8256      0.00000
    305      19.8734      0.00000
    306      19.9169      0.00000
    307      19.9457      0.00000

 k-point   2 :       0.5000    0.1250    0.7500
  band No.  band energies     occupation 
      1     -40.7436      2.00000
      2     -40.7434      2.00000
      3     -40.7340      2.00000
      4     -40.7337      2.00000
      5     -40.7210      2.00000
      6     -40.7207      2.00000
      7     -40.7199      2.00000
      8     -40.7188      2.00000
      9     -40.7146      2.00000
     10     -40.7135      2.00000
     11     -40.7075      2.00000
     12     -40.7062      2.00000
     13     -40.7030      2.00000
     14     -40.7027      2.00000
     15     -40.6997      2.00000
     16     -40.6995      2.00000
     17     -40.6986      2.00000
     18     -40.6982      2.00000
     19     -40.6940      2.00000
     20     -40.6932      2.00000
     21     -40.6810      2.00000
     22     -40.6805      2.00000
     23     -40.6739      2.00000
[...]
y     0.0024    0.0000    0.0000    0.0000    0.0000    0.0000    0.0000   -0.0000   -0.0000   -0.0000
y    -0.0000   -0.0000   -0.0000   -0.0000   -0.0000    0.0000   -0.0000   -0.0000    0.0000    0.0000
y     0.0000    0.0000
z   266.5038    0.0000   -0.0000   -0.0000   -0.0000   -0.0000   -0.0000   -0.0000   44.1630   -0.0000
z    -0.0000   -0.0000   -0.0000   -0.0000   -0.0000    0.0000   -8.4086    0.0000   -0.0000   -0.0000
z    -0.0000    0.0000   -0.0000    0.0000   -1.0681    0.0000   -0.0000   -0.0000   -0.0000    0.0000
z    -0.0000   -0.0000    0.0213    0.0000   -0.0000   -0.0000    0.0000    0.0000    0.0000    0.0000
z     0.0024    0.0000    0.0000    0.0000    0.0000    0.0000    0.0000    0.0000   -0.0000    0.0000
z    -0.0000   -0.0000   -0.0000   -0.0000   -0.0000   -0.0000   -0.0000   -0.0000   -0.0000   -0.0000
z     0.0000    0.0000
 total charge-density along one line
x   512.0000    0.0000   -0.0005   -0.1185   -0.0016   -0.1937   -0.0026   -0.2152  198.1867   -0.1982
x    -0.0033   -0.1645   -0.0029   -0.1205   -0.0022   -0.0765   22.1076   -0.0442   -0.0006   -0.0208
x    -0.0001   -0.0034    0.0002    0.0049   -1.4947    0.0045    0.0002    0.0022    0.0000    0.0008
x    -0.0000   -0.0005    0.3547   -0.0014   -0.0001   -0.0012   -0.0000   -0.0004    0.0000    0.0002
x    -0.0873    0.0004    0.0000    0.0004    0.0000    0.0001   -0.0000   -0.0001    0.0351   -0.0002
x    -0.0000   -0.0001   -0.0000   -0.0000    0.0000    0.0001   -0.0159    0.0001    0.0000    0.0001
x    -0.0000   -0.0000   -0.0000   -0.0001    0.0077   -0.0001   -0.0000   -0.0000    0.0000    0.0000
x     0.0000    0.0000   -0.0039    0.0000    0.0000    0.0000   -0.0000   -0.0000   -0.0000   -0.0000
x     0.0020   -0.0000   -0.0000   -0.0000    0.0000    0.0000    0.0000    0.0000   -0.0010    0.0000
x    -0.0000   -0.0000   -0.0000   -0.0000   -0.0000   -0.0000    0.0005   -0.0000    0.0000    0.0000
x     0.0000    0.0000    0.0000    0.0000   -0.0002    0.0000   -0.0000   -0.0000   -0.0000   -0.0000
x    -0.0000   -0.0000    0.0000   -0.0000    0.0000    0.0000    0.0000    0.0000    0.0000    0.0000
x     0.0001    0.0000
y   512.0000    0.0000   -0.0000    0.0000   -0.0000    0.0000   -0.0000    0.0000  198.1675   -0.0000
y    -0.0000   -0.0000   -0.0000   -0.0000   -0.0000   -0.0000   22.0432   -0.0000   -0.0000    0.0000
y    -0.0000   -0.0000   -0.0000   -0.0000   -1.5181    0.0000   -0.0000   -0.0000   -0.0000   -0.0000
y    -0.0000    0.0000    0.3531    0.0000   -0.0000    0.0000    0.0000    0.0000    0.0000    0.0000
y    -0.0873    0.0000    0.0000    0.0000   -0.0000   -0.0000   -0.0000    0.0000    0.0351   -0.0000
y    -0.0000   -0.0000   -0.0000    0.0000    0.0000   -0.0000   -0.0159   -0.0000   -0.0000   -0.0000
y    -0.0000   -0.0000   -0.0000    0.0000    0.0077    0.0000   -0.0000    0.0000   -0.0000    0.0000
y     0.0000   -0.0000   -0.0039   -0.0000    0.0000   -0.0000    0.0000   -0.0000    0.0000    0.0000
y     0.0020    0.0000    0.0000    0.0000    0.0000    0.0000    0.0000   -0.0000   -0.0010   -0.0000
y     0.0000   -0.0000    0.0000   -0.0000    0.0000    0.0000    0.0005    0.0000    0.0000    0.0000
y     0.0000    0.0000    0.0000   -0.0000   -0.0002   -0.0000    0.0000   -0.0000    0.0000   -0.0000
y     0.0000    0.0000    0.0000   -0.0000   -0.0000    0.0000   -0.0000   -0.0000   -0.0000   -0.0000
y     0.0001    0.0000
z   512.0000    0.0000   -0.0000    0.0000   -0.0000    0.0000   -0.0000    0.0000  198.2811    0.0000
z    -0.0000   -0.0000   -0.0000   -0.0000   -0.0000   -0.0000   22.1383    0.0000   -0.0000    0.0000
z    -0.0000    0.0000   -0.0000   -0.0000   -1.4678    0.0000   -0.0000    0.0000   -0.0000    0.0000
z    -0.0000    0.0000    0.3602    0.0000   -0.0000   -0.0000    0.0000    0.0000    0.0000    0.0000
z    -0.0881    0.0000    0.0000   -0.0000   -0.0000   -0.0000   -0.0000    0.0000    0.0354    0.0000
z    -0.0000    0.0000   -0.0000    0.0000    0.0000   -0.0000   -0.0160   -0.0000   -0.0000   -0.0000
z    -0.0000   -0.0000   -0.0000   -0.0000    0.0078   -0.0000   -0.0000    0.0000   -0.0000    0.0000
z     0.0000    0.0000   -0.0039    0.0000    0.0000   -0.0000    0.0000   -0.0000    0.0000   -0.0000
z     0.0020    0.0000    0.0000    0.0000    0.0000    0.0000    0.0000   -0.0000   -0.0010   -0.0000
z     0.0000   -0.0000    0.0000   -0.0000    0.0000    0.0000    0.0005    0.0000    0.0000    0.0000
z     0.0000    0.0000    0.0000   -0.0000   -0.0002    0.0000    0.0000   -0.0000    0.0000    0.0000
z     0.0000    0.0000    0.0000   -0.0000   -0.0000    0.0000   -0.0000   -0.0000   -0.0000   -0.0000
z     0.0001    0.0000
 
 pseudopotential strength for first ion, spin component:           1
-37.308   0.002   0.000   8.286  -0.001  -0.000  -0.000  -0.000
  0.002 -37.311   0.000  -0.001   8.287  -0.000  -0.000  -0.000
  0.000   0.000 -37.311  -0.000  -0.000   8.287  -0.000  -0.000
  8.286  -0.001  -0.000   7.864   0.000   0.000   0.000   0.000
 -0.001   8.287  -0.000   0.000   7.864   0.000   0.000   0.000
 -0.000  -0.000   8.287   0.000   0.000   7.863   0.000   0.000
 -0.000  -0.000  -0.000   0.000   0.000   0.000  -2.352  -0.000
 -0.000  -0.000  -0.000   0.000   0.000   0.000  -0.000  -2.353
  0.000  -0.000   0.000  -0.000   0.000  -0.000  -0.000   0.001
 -0.000  -0.000  -0.000   0.000   0.000   0.000   0.001  -0.000
  0.000   0.000  -0.000  -0.000  -0.000   0.000   0.000  -0.001
 -0.001  -0.000  -0.000   0.000   0.000   0.000  -2.008  -0.000
 -0.000  -0.000  -0.000   0.000   0.000   0.000  -0.000  -2.009
  0.000  -0.000   0.000  -0.000   0.000  -0.000  -0.000   0.001
 -0.000  -0.001  -0.000   0.000   0.000   0.000   0.001  -0.000
  0.000   0.000  -0.000  -0.000  -0.000   0.000   0.000  -0.002
  0.000   0.000   0.000  -0.000   0.000   0.000  -0.000  -0.001
  0.000   0.000   0.001  -0.000   0.000   0.000  -0.000  -0.001
 total augmentation occupancy for first ion, spin component:           1
  1.998  -0.000  -0.000  -0.014   0.000   0.000   0.000   0.000  -0.000   0.000  -0.000  -0.000  -0.000   0.000  -0.000   0.000
 -0.000   1.998  -0.000   0.000  -0.014  -0.000   0.000   0.000  -0.000   0.000   0.000  -0.000  -0.000   0.000  -0.000   0.000
 -0.000  -0.000   1.998   0.000  -0.000  -0.014   0.000   0.000  -0.000  -0.000   0.000  -0.000  -0.000   0.000   0.000  -0.000
 -0.014   0.000   0.000   0.103  -0.000  -0.000   0.003   0.000  -0.000   0.000  -0.000  -0.002   0.000   0.000   0.000   0.000
  0.000  -0.014  -0.000  -0.000   0.102   0.000   0.000   0.000   0.000   0.003   0.000  -0.000  -0.000  -0.000  -0.002  -0.000
  0.000  -0.000  -0.014  -0.000   0.000   0.103   0.000   0.000  -0.001   0.000   0.001  -0.000   0.000   0.001  -0.000  -0.001
  0.000   0.000   0.000   0.003   0.000   0.000   2.732   0.000  -0.000   0.000   0.000  -0.717  -0.000  -0.000  -0.000  -0.000
  0.000   0.000   0.000   0.000   0.000   0.000   0.000   2.732   0.001   0.000  -0.000  -0.000  -0.718   0.000   0.000  -0.000
 -0.000  -0.000  -0.000  -0.000   0.000  -0.001  -0.000   0.001   2.511   0.000   0.001  -0.000   0.000  -0.530   0.000  -0.000
  0.000   0.000  -0.000   0.000   0.003   0.000   0.000   0.000   0.000   2.730   0.000  -0.000   0.000   0.000  -0.718   0.000
 -0.000   0.000   0.000  -0.000   0.000   0.001   0.000  -0.000   0.001   0.000   2.510  -0.000  -0.000  -0.000   0.000  -0.531
 -0.000  -0.000  -0.000  -0.002  -0.000  -0.000  -0.717  -0.000  -0.000  -0.000  -0.000   0.459  -0.000  -0.000  -0.000  -0.000
 -0.000  -0.000  -0.000   0.000  -0.000   0.000  -0.000  -0.718   0.000   0.000  -0.000  -0.000   0.457   0.001  -0.000  -0.001
  0.000   0.000   0.000   0.000  -0.000   0.001  -0.000   0.000  -0.530   0.000  -0.000  -0.000   0.001   0.419   0.000   0.000
 -0.000  -0.000   0.000   0.000  -0.002  -0.000  -0.000   0.000   0.000  -0.718   0.000  -0.000  -0.000   0.000   0.455   0.000
  0.000   0.000  -0.000   0.000  -0.000  -0.001  -0.000  -0.000  -0.000   0.000  -0.531  -0.000  -0.001   0.000   0.000   0.417
 -0.000  -0.000  -0.000   0.000   0.000   0.003   0.000   0.002  -0.002   0.000  -0.001  -0.000   0.001  -0.003  -0.000   0.001
  0.000   0.000   0.000  -0.000  -0.000  -0.000  -0.000  -0.001   0.001  -0.000   0.001   0.000   0.000  -0.000   0.000  -0.000


------------------------ aborting loop because EDIFF is reached ----------------------------------------


    CHARGE:  cpu time   50.83: real time   50.87
    FORLOC:  cpu time    0.17: real time    0.17
    FORNL :  cpu time  467.56: real time  467.97
    STRESS:  cpu time  371.89: real time  372.21
    FORCOR:  cpu time    1.42: real time    1.42
    FORHAR:  cpu time    0.43: real time    0.43
    MIXING:  cpu time    0.04: real time    0.04

  FORCE on cell =-STRESS in cart. coord.  units (eV):
  Direction    XX          YY          ZZ          XY          YZ          ZX
  --------------------------------------------------------------------------------------
  Alpha Z  4309.77481  4309.77481  4309.77481
  Ewald  -22954.23600-22954.14440-22954.14440     0.00000     0.00000    -0.00000
  Hartree  5773.38332  5774.55497  5771.06772     0.00000     2.10799     0.00000
  E(xc)   -2903.31675 -2903.33151 -2903.38363     0.00000     0.01099    -0.00000
  Local    5699.96718  5696.22094  5705.53864    -0.00000    -5.42928    -0.00000
  n-local  -895.39055  -896.94380  -899.43853    -0.00000     0.39365    -0.00000
  augment  3889.94218  3892.14995  3890.50915     0.00001     1.54811     0.00001
  Kinetic  7086.44740  7088.51954  7086.03430     0.00000     2.08936     0.00000
  Fock        0.00000     0.00000     0.00000     0.00000     0.00000     0.00000
  -------------------------------------------------------------------------------------
  Total       6.57158     6.80050     5.95806     0.00001     0.72084     0.00001
  in kB      21.73241    22.48943    19.70349     0.00003     2.38384     0.00003
  external pressure =       21.31 kB  Pullay stress =        0.00 kB


 VOLUME and BASIS-vectors are now :
 -----------------------------------------------------------------------------
  energy-cutoff  :      500.00
  volume of cell :      484.48
      direct lattice vectors                 reciprocal lattice vectors
     7.854000000 -0.000000000 -0.000000000     0.127323657  0.000000000 -0.000000000
    -0.000000000  7.854000000  0.000000000     0.000000000  0.127323657 -0.000000000
     0.000000000  0.000000000  7.854000000     0.000000000 -0.000000000  0.127323657

  length of vectors
     7.854000000  7.854000000  7.854000000     0.127323657  0.127323657  0.127323657


 FORCES acting on ions
    electron-ion (+dipol)            ewald-force                    non-local-force                 convergence-correction
 -----------------------------------------------------------------------------------------------
   0.986E+01 0.207E-05 0.539E-06   -.988E+01 0.575E-13 -.534E-14   -.649E-01 0.243E-06 0.249E-06   0.764E-04 -.232E-05 -.903E-06
   0.155E+01 0.641E-02 0.630E-02   -.156E+01 -.623E-02 -.623E-02   0.441E-02 -.980E-04 -.100E-03   0.331E-04 -.876E-04 0.169E-04
   0.341E+00 0.483E-05 -.111E-05   -.341E+00 0.710E-13 -.170E-12   -.551E-03 -.120E-06 -.133E-05   0.248E-04 -.488E-05 0.248E-05
   0.155E+01 -.641E-02 -.631E-02   -.156E+01 0.623E-02 0.623E-02   0.441E-02 0.988E-04 0.997E-04   0.321E-04 0.870E-04 -.927E-05
   -.125E+01 -.121E-04 -.240E+01   0.125E+01 0.106E-12 0.241E+01   0.712E-02 0.979E-04 0.672E-02   -.398E-04 0.403E-05 0.196E-04
   -.373E-01 -.197E+00 0.642E-05   0.381E-01 0.198E+00 -.235E-12   -.707E-03 -.106E-03 0.370E-04   -.637E-04 -.138E-03 -.158E-05
   -.371E-01 0.624E-04 0.197E+00   0.381E-01 0.142E-12 -.198E+00   -.816E-03 -.516E-04 0.866E-04   -.631E-04 0.265E-05 0.719E-05
   -.125E+01 0.240E+01 0.348E-04   0.125E+01 -.241E+01 -.292E-12   0.686E-02 -.654E-02 -.775E-04   -.374E-04 0.112E-03 -.539E-05
   -.656E+00 -.262E-05 -.384E-05   0.648E+00 0.142E-12 -.177E-12   0.539E-02 0.478E-06 -.445E-06   -.905E-04 0.240E-05 0.424E-05
   -.873E+00 -.175E-02 0.185E-02   0.876E+00 0.187E-02 -.187E-02   -.217E-02 0.111E-05 0.151E-05   -.458E-04 -.111E-03 0.100E-04
   -.657E+00 -.540E-06 -.736E-07   0.648E+00 0.130E-12 -.235E-12   0.591E-02 -.779E-07 0.811E-06   -.267E-04 0.553E-06 -.808E-06
   -.873E+00 0.175E-02 -.184E-02   0.876E+00 -.187E-02 0.187E-02   -.217E-02 -.132E-05 -.175E-05   -.486E-04 0.108E-03 -.136E-04
   -.126E+01 -.147E-05 -.238E+01   0.126E+01 0.192E-12 0.239E+01   0.720E-02 0.975E-04 0.679E-02   0.467E-04 -.170E-05 0.585E-05
   -.126E+01 0.238E+01 0.262E-04   0.126E+01 -.239E+01 -.292E-12   0.694E-02 -.662E-02 -.777E-04   0.449E-04 -.714E-04 -.147E-05
   -.413E-01 0.707E-04 0.197E+00   0.421E-01 0.180E-12 -.198E+00   -.804E-03 -.515E-04 0.798E-04   0.662E-04 -.420E-05 -.818E-05
   -.414E-01 -.197E+00 -.498E-05   0.421E-01 0.198E+00 -.341E-12   -.695E-03 -.993E-04 0.400E-04   0.669E-04 0.750E-04 0.537E-05
   -.125E+01 -.240E+01 -.325E-04   0.125E+01 0.241E+01 0.326E-12   0.686E-02 0.654E-02 0.793E-04   -.364E-04 -.113E-03 0.134E-05
   -.372E-01 -.606E-04 -.197E+00   0.381E-01 -.162E-12 0.198E+00   -.816E-03 0.517E-04 -.867E-04   -.612E-04 -.472E-05 -.656E-05
   -.373E-01 0.197E+00 -.779E-05   0.381E-01 -.198E+00 0.277E-12   -.708E-03 0.105E-03 -.384E-04   -.619E-04 0.139E-03 0.433E-05
   -.125E+01 0.109E-04 0.240E+01   0.125E+01 -.213E-12 -.241E+01   0.712E-02 -.982E-04 -.672E-02   -.368E-04 -.256E-05 -.191E-04
   -.873E+00 -.176E-02 -.185E-02   0.876E+00 0.187E-02 0.187E-02   -.225E-02 0.344E-05 0.251E-05   -.477E-04 -.107E-03 -.942E-05
   -.318E+00 0.331E-05 0.610E-06   0.319E+00 -.117E-12 0.227E-12   -.213E-03 0.835E-07 -.709E-06   -.190E-04 -.349E-05 0.497E-07
   -.873E+00 0.175E-02 0.185E-02   0.876E+00 -.187E-02 -.187E-02   -.225E-02 -.344E-05 -.251E-05   -.465E-04 0.112E-03 0.135E-04
   -.260E+01 0.995E-06 0.438E-05   0.261E+01 -.171E-12 0.177E-12   -.952E-02 0.145E-06 0.479E-06   -.527E-04 -.105E-05 -.487E-05
   -.414E-01 0.197E+00 0.646E-06   0.421E-01 -.198E+00 0.284E-12   -.696E-03 0.992E-04 -.421E-04   0.691E-04 -.747E-04 0.863E-06
   -.413E-01 -.668E-04 -.197E+00   0.421E-01 -.121E-12 0.198E+00   -.805E-03 0.515E-04 -.802E-04   0.687E-04 0.431E-06 0.901E-05
   -.126E+01 -.238E+01 -.210E-04   0.126E+01 0.239E+01 0.220E-12   0.694E-02 0.662E-02 0.800E-04   0.478E-04 0.721E-04 -.589E-05
   -.126E+01 -.118E-05 0.238E+01   0.126E+01 -.114E-12 -.239E+01   0.720E-02 -.972E-04 -.679E-02   0.498E-04 0.392E-05 -.572E-05
   0.155E+01 0.641E-02 -.631E-02   -.156E+01 -.623E-02 0.623E-02   0.423E-02 -.978E-04 0.103E-03   0.305E-04 -.859E-04 -.166E-04
   0.823E+00 -.247E-05 0.156E-05   -.826E+00 -.607E-13 0.170E-12   0.267E-02 -.638E-06 0.178E-05   0.119E-04 0.301E-05 -.328E-05
   0.155E+01 -.641E-02 0.631E-02   -.156E+01 0.623E-02 -.623E-02   0.423E-02 0.961E-04 -.102E-03   0.332E-04 0.887E-04 0.934E-05
   0.823E+00 -.433E-05 -.833E-06   -.826E+00 -.566E-13 0.114E-12   0.251E-02 -.165E-06 -.331E-06   0.763E-04 0.439E-05 0.123E-05
 -----------------------------------------------------------------------------------------------
   -.409E-06 -.120E-05 0.168E-06   0.536E-13 0.155E-12 0.121E-13   -.239E-04 -.139E-05 0.637E-06   0.607E-06 0.192E-05 -.125E-05
 
 
 POSITION                                       TOTAL-FORCE (eV/Angst)
 -----------------------------------------------------------------------------------
      0.01000     -0.00000     -0.00000        -0.087256      0.000000     -0.000000
      0.00000      1.96350      1.96350        -0.000999     -0.000015     -0.000015
      0.00000      3.92700      3.92700        -0.000413     -0.000000      0.000000
      0.00000      5.89050      5.89050        -0.000999      0.000015      0.000015
      1.96350      0.00000      1.96350         0.011457      0.000090      0.013121
      1.96350      1.96350      3.92700         0.000045      0.000474      0.000042
      1.96350      3.92700      5.89050         0.000045      0.000014     -0.000508
      1.96350      5.89050      0.00000         0.011457     -0.013098     -0.000048
      3.92700      0.00000      3.92700        -0.002638      0.000000     -0.000000
      3.92700      1.96350      5.89050         0.000840      0.000008     -0.000009
      3.92700      3.92700      0.00000        -0.002293     -0.000000     -0.000000
      3.92700      5.89050      1.96350         0.000840     -0.000008      0.000008
      5.89050      0.00000      5.89050         0.011117      0.000094      0.012668
      5.89050      1.96350     -0.00000         0.011117     -0.012647     -0.000053
      5.89050      3.92700      1.96350         0.000054      0.000015     -0.000494
      5.89050      5.89050      3.92700         0.000053      0.000464      0.000040
      1.96350      1.96350      0.00000         0.011457      0.013098      0.000048
      1.96350      3.92700      1.96350         0.000046     -0.000014      0.000508
      1.96350      5.89050      3.92700         0.000044     -0.000474     -0.000042
      1.96350      0.00000      5.89050         0.011457     -0.000090     -0.013121
      3.92700      1.96350      1.96350         0.000890      0.000007      0.000008
      3.92700      3.92700      3.92700         0.000545     -0.000000     -0.000000
      3.92700      5.89050      5.89050         0.000890     -0.000007     -0.000008
      3.92700     -0.00000     -0.00000         0.001949      0.000000     -0.000000
      5.89050      1.96350      3.92700         0.000053     -0.000464     -0.000041
      5.89050      3.92700      5.89050         0.000054     -0.000015      0.000494
      5.89050      5.89050      0.00000         0.011117      0.012647      0.000053
      5.89050     -0.00000      1.96350         0.011117     -0.000094     -0.012668
      0.00000      1.96350      5.89050        -0.001059     -0.000013      0.000014
     -0.00000      3.92700      0.00000        -0.000022     -0.000000      0.000000
     -0.00000      5.89050      1.96350        -0.001059      0.000013     -0.000015
      0.00000      0.00000      3.92700         0.000093     -0.000000      0.000000
 -----------------------------------------------------------------------------------
    total drift:                               -0.000024     -0.000001     -0.000000


--------------------------------------------------------------------------------------------------------



  FREE ENERGIE OF THE ION-ELECTRON SYSTEM (eV)
  ---------------------------------------------------
  free  energy   TOTEN  =      -166.83723441 eV

  energy  without entropy=     -166.44620225  energy(sigma->0) =     -166.64171833
 


--------------------------------------------------------------------------------------------------------


    POTLOK:  cpu time    2.63: real time    2.64


--------------------------------------------------------------------------------------------------------


     LOOP+:  cpu time16476.12: real time16490.97
    4ORBIT:  cpu time    0.00: real time    0.00

 total amount of memory used by VASP on root node  1692959. kBytes
========================================================================

   base      :      30000. kBytes
   nonl-proj :      48909. kBytes
   grid      :      92563. kBytes
   one-center:        497. kBytes
   wavefun   :    1520990. kBytes
 
  
  
 General timing and accounting informations for this job:
 ========================================================
  
                  Total CPU time used (sec):    16533.080
                            User time (sec):    16526.545
                          System time (sec):        6.535
                         Elapsed time (sec):    16548.141
  
                   Maximum memory used (kb):     4698508.
                   Average memory used (kb):           0.
  
                          Minor page faults:      3433046
                          Major page faults:           12
                 Voluntary context switches:          361
