<?xml version="1.0" encoding="ISO-8859-1"?>
<modeling>
 <generator>
  <i name="program" type="string">vasp </i>
  <i name="version" type="string">5.3.3  </i>
  <i name="subversion" type="string">18Dez12 (build Jun 21 2016 14:15:03) complex                          serial </i>
  <i name="platform" type="string">LinuxIFC </i>
  <i name="date" type="string">2017 10 11 </i>
  <i name="time" type="string">15:33:49 </i>
 </generator>
 <incar>
  <i type="string" name="PREC">a</i>
  <i type="int" name="IALGO">    38</i>
  <i type="logical" name="ADDGRID"> T  </i>
  <i type="int" name="IBRION">    -1</i>
  <i name="EDIFF">      0.00000001</i>
  <i type="int" name="ISYM">     0</i>
  <i name="ENCUT">    500.00000000</i>
  <i type="logical" name="LREAL"> F  </i>
  <i type="int" name="ISMEAR">     0</i>
  <i name="SIGMA">      0.10000000</i>
  <i type="logical" name="LWAVE"> F  </i>
 </incar>
 <kpoints>
  <varray name="kpointlist" >
   <v>       0.19230769       0.26923077       0.27884615 </v>
   <v>       0.26923077       0.57692308       0.24038462 </v>
   <v>       0.34615385       0.88461538       0.20192308 </v>
   <v>       0.42307692       0.19230769       0.16346154 </v>
   <v>       0.50000000       0.50000000       0.12500000 </v>
   <v>       0.57692308       0.80769231       0.08653846 </v>
   <v>       0.65384615       0.11538462       0.04807692 </v>
   <v>       0.73076923       0.42307692       0.00961538 </v>
   <v>       0.80769231       0.73076923       0.97115385 </v>
   <v>       0.88461538       0.03846154       0.93269231 </v>
   <v>       0.96153846       0.34615385       0.89423077 </v>
   <v>       0.03846154       0.65384615       0.85576923 </v>
   <v>       0.11538462       0.96153846       0.81730769 </v>
   <v>       0.19230769       0.26923077       0.77884615 </v>
   <v>       0.26923077       0.57692308       0.74038462 </v>
   <v>       0.34615385       0.88461538       0.70192308 </v>
   <v>       0.42307692       0.19230769       0.66346154 </v>
   <v>       0.50000000       0.50000000       0.62500000 </v>
   <v>       0.57692308       0.80769231       0.58653846 </v>
   <v>       0.65384615       0.11538462       0.54807692 </v>
   <v>       0.73076923       0.42307692       0.50961538 </v>
   <v>       0.80769231       0.73076923       0.47115385 </v>
   <v>       0.88461538       0.03846154       0.43269231 </v>
   <v>       0.96153846       0.34615385       0.39423077 </v>
   <v>       0.03846154       0.65384615       0.35576923 </v>
   <v>       0.11538462       0.96153846       0.31730769 </v>
  </varray>
  <varray name="weights" >
   <v>       0.03846154 </v>
   <v>       0.03846154 </v>
   <v>       0.03846154 </v>
   <v>       0.03846154 </v>
   <v>       0.03846154 </v>
   <v>       0.03846154 </v>
   <v>       0.03846154 </v>
   <v>       0.03846154 </v>
   <v>       0.03846154 </v>
   <v>       0.03846154 </v>
   <v>       0.03846154 </v>
   <v>       0.03846154 </v>
   <v>       0.03846154 </v>
   <v>       0.03846154 </v>
   <v>       0.03846154 </v>
   <v>       0.03846154 </v>
   <v>       0.03846154 </v>
   <v>       0.03846154 </v>
   <v>       0.03846154 </v>
   <v>       0.03846154 </v>
   <v>       0.03846154 </v>
   <v>       0.03846154 </v>
   <v>       0.03846154 </v>
   <v>       0.03846154 </v>
   <v>       0.03846154 </v>
   <v>       0.03846154 </v>
  </varray>
 </kpoints>
 <parameters>
  <separator name="general" >
   <i type="string" name="SYSTEM">unknown system</i>
   <i type="logical" name="LCOMPAT"> F  </i>
  </separator>
  <separator name="electronic" >
   <i type="string" name="PREC">a</i>
   <i name="ENMAX">    500.00000000</i>
   <i name="ENAUG">    473.06700000</i>
   <i name="EDIFF">      0.00000001</i>
   <i type="int" name="IALGO">    38</i>
   <i type="int" name="IWAVPR">     0</i>
   <i type="int" name="NBANDS">   259</i>
   <i name="NELECT">    432.00000000</i>
   <i type="int" name="TURBO">     0</i>
   <i type="int" name="IRESTART">     0</i>
   <i type="int" name="NREBOOT">     0</i>
   <i type="int" name="NMIN">     0</i>
   <i name="EREF">      0.00000000</i>
   <separator name="electronic smearing" >
    <i type="int" name="ISMEAR">     0</i>
    <i name="SIGMA">      0.10000000</i>
    <i name="KSPACING">      0.50000000</i>
    <i type="logical" name="KGAMMA"> T  </i>
   </separator>
   <separator name="electronic projectors" >
    <i type="logical" name="LREAL"> F  </i>
    <v name="ROPT">      0.00000000</v>
    <i type="int" name="LMAXPAW">  -100</i>
    <i type="int" name="LMAXMIX">     2</i>
    <i type="logical" name="NLSPLINE"> F  </i>
   </separator>
   <separator name="electronic startup" >
    <i type="int" name="ISTART">     0</i>
    <i type="int" name="ICHARG">     2</i>
    <i type="int" name="INIWAV">     1</i>
   </separator>
   <separator name="electronic spin" >
    <i type="int" name="ISPIN">     1</i>
    <i type="logical" name="LNONCOLLINEAR"> F  </i>
    <v name="MAGMOM">      1.00000000      1.00000000      1.00000000      1.00000000      1.00000000      1.00000000      1.00000000      1.00000000      1.00000000      1.00000000      1.00000000      1.00000000      1.00000000      1.00000000      1.00000000      1.00000000      1.00000000      1.00000000      1.00000000      1.00000000
      1.00000000      1.00000000      1.00000000      1.00000000      1.00000000      1.00000000      1.00000000</v>
    <i name="NUPDOWN">     -1.00000000</i>
    <i type="logical" name="LSORBIT"> F  </i>
    <v name="SAXIS">      0.00000000      0.00000000      1.00000000</v>
    <i type="logical" name="LSPIRAL"> F  </i>
    <v name="QSPIRAL">      0.00000000      0.00000000      0.00000000</v>
    <i type="logical" name="LZEROZ"> F  </i>
   </separator>
   <separator name="electronic exchange-correlation" >
    <i type="logical" name="LASPH"> F  </i>
    <i type="logical" name="LMETAGGA"> F  </i>
   </separator>
   <separator name="electronic convergence" >
    <i type="int" name="NELM">    60</i>
    <i type="int" name="NELMDL">     0</i>
    <i type="int" name="NELMIN">     2</i>
    <i name="ENINI">    500.00000000</i>
    <separator name="electronic convergence detail" >
     <i type="logical" name="LDIAG"> T  </i>
     <i type="logical" name="LSUBROT"> T  </i>
     <i name="WEIMIN">      0.00000000</i>
     <i name="EBREAK">      0.00000000</i>
     <i name="DEPER">      0.30000000</i>
     <i type="int" name="NRMM">     4</i>
     <i name="TIME">      0.40000000</i>
    </separator>
   </separator>
   <separator name="electronic mixer" >
    <i name="AMIX">      0.40000000</i>
    <i name="BMIX">      1.00000000</i>
    <i name="AMIN">      0.10000000</i>
    <i name="AMIX_MAG">      1.60000000</i>
    <i name="BMIX_MAG">      1.00000000</i>
    <separator name="electronic mixer details" >
     <i type="int" name="IMIX">     4</i>
     <i type="int" name="MAXMIX">   -45</i>
     <i name="WC">    100.00000000</i>
     <i type="int" name="INIMIX">     1</i>
     <i type="int" name="MIXPRE">     1</i>
     <i type="int" name="MREMOVE">     5</i>
    </separator>
   </separator>
   <separator name="electronic dipolcorrection" >
    <i type="logical" name="LDIPOL"> F  </i>
    <i type="logical" name="LMONO"> F  </i>
    <i type="int" name="IDIPOL">     0</i>
    <i name="EPSILON">      1.00000000</i>
    <v name="DIPOL">   -100.00000000   -100.00000000   -100.00000000</v>
    <i name="EFIELD">      0.00000000</i>
   </separator>
  </separator>
  <separator name="grids" >
   <i type="int" name="NGX">    64</i>
   <i type="int" name="NGY">    64</i>
   <i type="int" name="NGZ">    64</i>
   <i type="int" name="NGXF">   128</i>
   <i type="int" name="NGYF">   128</i>
   <i type="int" name="NGZF">   128</i>
   <i type="logical" name="ADDGRID"> T  </i>
  </separator>
  <separator name="ionic" >
   <i type="int" name="NSW">     0</i>
   <i type="int" name="IBRION">    -1</i>
   <i type="int" name="ISIF">     2</i>
   <i name="PSTRESS">      0.00000000</i>
   <i name="EDIFFG">      0.00000010</i>
   <i type="int" name="NFREE">     0</i>
   <i name="POTIM">      0.50000000</i>
   <i name="SMASS">     -3.00000000</i>
   <i name="SCALEE">      1.00000000</i>
  </separator>
  <separator name="ionic md" >
   <i name="TEBEG">      0.00010000</i>
   <i name="TEEND">      0.00010000</i>
   <i type="int" name="NBLOCK">     1</i>
   <i type="int" name="KBLOCK">     1</i>
   <i type="int" name="NPACO">   256</i>
   <i name="APACO">     16.00000000</i>
  </separator>
  <separator name="symmetry" >
   <i type="int" name="ISYM">     0</i>
   <i name="SYMPREC">      0.00001000</i>
  </separator>
  <separator name="dos" >
   <i type="logical" name="LORBIT"> F  </i>
   <v name="RWIGS">     -1.00000000</v>
   <i type="int" name="NEDOS">   301</i>
   <i name="EMIN">     10.00000000</i>
   <i name="EMAX">    -10.00000000</i>
   <i name="EFERMI">      0.00000000</i>
  </separator>
  <separator name="writing" >
   <i type="int" name="NWRITE">     2</i>
   <i type="logical" name="LWAVE"> F  </i>
   <i type="logical" name="LCHARG"> T  </i>
   <i type="logical" name="LPARD"> F  </i>
   <i type="logical" name="LVTOT"> F  </i>
   <i type="logical" name="LVHAR"> F  </i>
   <i type="logical" name="LELF"> F  </i>
   <i type="logical" name="LOPTICS"> F  </i>
   <v name="STM">      0.00000000      0.00000000      0.00000000      0.00000000      0.00000000      0.00000000      0.00000000</v>
  </separator>
  <separator name="performance" >
   <i type="int" name="NPAR">     1</i>
   <i type="int" name="NSIM">     4</i>
   <i type="int" name="NBLK">    -1</i>
   <i type="logical" name="LPLANE"> T  </i>
   <i type="logical" name="LSCALAPACK"> F  </i>
   <i type="logical" name="LSCAAWARE"> F  </i>
   <i type="logical" name="LSCALU"> F  </i>
   <i type="logical" name="LASYNC"> F  </i>
   <i type="logical" name="LORBITALREAL"> F  </i>
  </separator>
  <separator name="miscellaneous" >
   <i type="int" name="IDIOT">     3</i>
   <i type="logical" name="LMUSIC"> F  </i>
   <v name="POMASS">    106.42000000</v>
   <v name="DARWINR">      0.00000000</v>
   <v name="DARWINV">      1.00000000</v>
   <i type="logical" name="LCORR"> T  </i>
  </separator>
  <i type="logical" name="GGA_COMPAT"> T  </i>
  <i type="logical" name="LBERRY"> F  </i>
  <i type="int" name="ICORELEVEL">     0</i>
  <i type="logical" name="LDAU"> F  </i>
  <i type="int" name="I_CONSTRAINED_M">     0</i>
  <separator name="electronic exchange-correlation" >
   <i type="string" name="GGA">--</i>
   <i type="int" name="VOSKOWN">     0</i>
   <i type="logical" name="LHFCALC"> F  </i>
   <i type="string" name="PRECFOCK"></i>
   <i type="logical" name="LSYMGRAD"> F  </i>
   <i type="logical" name="LHFONE"> F  </i>
   <i type="logical" name="LRHFCALC"> F  </i>
   <i type="logical" name="LTHOMAS"> F  </i>
   <i type="logical" name="LMODELHF"> F  </i>
   <i name="ENCUT4O">     -1.00000000</i>
   <i type="int" name="EXXOEP">     0</i>
   <i type="int" name="FOURORBIT">     0</i>
   <i name="AEXX">      0.00000000</i>
   <i name="HFALPHA">      0.00000000</i>
   <i name="MCALPHA">      0.00000000</i>
   <i name="ALDAX">      1.00000000</i>
   <i name="AGGAX">      1.00000000</i>
   <i name="ALDAC">      1.00000000</i>
   <i name="AGGAC">      1.00000000</i>
   <i type="int" name="NKREDX">     1</i>
   <i type="int" name="NKREDY">     1</i>
   <i type="int" name="NKREDZ">     1</i>
   <i type="logical" name="SHIFTRED"> F  </i>
   <i type="logical" name="ODDONLY"> F  </i>
   <i type="logical" name="EVENONLY"> F  </i>
   <i type="int" name="LMAXFOCK">     0</i>
   <i type="int" name="NMAXFOCKAE">     0</i>
   <i type="logical" name="LFOCKAEDFT"> F  </i>
   <i name="HFSCREEN">      0.00000000</i>
   <i name="HFSCREENC">      0.00000000</i>
   <i type="int" name="NBANDSGWLOW">     0</i>
  </separator>
  <separator name="vdW DFT" >
   <i type="logical" name="LUSE_VDW"> F  </i>
   <i name="Zab_VDW">     -0.84910000</i>
   <i name="PARAM1">      0.12340000</i>
   <i name="PARAM2">      1.00000000</i>
   <i name="PARAM3">      0.00000000</i>
  </separator>
  <separator name="model GW" >
   <i type="int" name="MODEL_GW">     0</i>
   <i name="MODEL_EPS0">      9.08393385</i>
   <i name="MODEL_ALPHA">      1.00000000</i>
  </separator>
  <separator name="linear response parameters" >
   <i type="logical" name="LEPSILON"> F  </i>
   <i type="logical" name="LRPA"> F  </i>
   <i type="logical" name="LNABLA"> F  </i>
   <i type="logical" name="LVEL"> F  </i>
   <i type="int" name="KINTER">     0</i>
   <i name="CSHIFT">      0.10000000</i>
   <i name="OMEGAMAX">     -1.00000000</i>
   <i name="DEG_THRESHOLD">      0.00200000</i>
  </separator>
  <separator name="orbital magnetization" >
   <i type="logical" name="NUCIND"> F  </i>
   <v name="MAGPOS">      0.00000000      0.00000000      0.00000000</v>
   <i type="logical" name="LNICSALL"> T  </i>
   <i type="logical" name="ORBITALMAG"> F  </i>
   <i type="logical" name="LMAGBLOCH"> F  </i>
   <i type="logical" name="LCHIMAG"> F  </i>
   <i type="logical" name="LGAUGE"> T  </i>
   <i type="int" name="MAGATOM">     0</i>
   <v name="MAGDIPOL">      0.00000000      0.00000000      0.00000000</v>
   <v name="AVECCONST">      0.00000000      0.00000000      0.00000000</v>
  </separator>
  <separator name="response functions" >
   <i type="logical" name="LADDER"> F  </i>
   <i type="logical" name="LFXC"> F  </i>
   <i type="logical" name="LHARTREE"> T  </i>
   <i type="int" name="IBSE">     0</i>
   <i type="logical" name="LTCTE"> F  </i>
   <i type="logical" name="LTETE"> F  </i>
   <i type="logical" name="LTRIPLET"> F  </i>
   <i type="logical" name="LFXCEPS"> F  </i>
   <i type="logical" name="L2ORDER"> F  </i>
   <i type="logical" name="LUSEW"> F  </i>
   <i name="ENCUTGW">     -2.00000000</i>
   <i name="ENCUTGWSOFT">     -2.00000000</i>
   <i name="ENCUTLF">     -1.00000000</i>
   <i type="int" name="LMAXMP2">    -1</i>
   <i name="SCISSOR">      0.00000000</i>
   <i type="int" name="NOMEGA">     0</i>
   <i type="int" name="NOMEGAR">     0</i>
   <i type="int" name="NBANDSGW">    -1</i>
   <i type="int" name="NBANDSO">    -1</i>
   <i type="int" name="NBANDSV">    -1</i>
   <i type="int" name="NELM">     1</i>
   <i type="int" name="DIM">     3</i>
   <i type="int" name="ANTIRES">     0</i>
   <i name="OMEGAMAX">    -30.00000000</i>
   <i name="OMEGATL">   -200.00000000</i>
   <i type="int" name="OMEGAGRID">     0</i>
   <i name="CSHIFT">     -0.10000000</i>
   <i type="logical" name="SELFENERGY"> F  </i>
   <i type="logical" name="LSPECTRAL"> F  </i>
   <i type="logical" name="ODDONLYGW"> F  </i>
   <i type="logical" name="EVENONLYGW"> F  </i>
   <i type="int" name="NKREDLFX">     1</i>
   <i type="int" name="NKREDLFY">     1</i>
   <i type="int" name="NKREDLFZ">     1</i>
   <i type="int" name="MAXMEM">  1800</i>
   <i type="int" name="TELESCOPE">     0</i>
  </separator>
 </parameters>
 <atominfo>
  <atoms>      27 </atoms>
  <types>       1 </types>
  <array name="atoms" >
   <dimension dim="1">ion</dimension>
   <field type="string">element</field>
   <field type="int">atomtype</field>
   <set>
    <rc><c>Pd</c><c>   1</c></rc>
    <rc><c>Pd</c><c>   1</c></rc>
    <rc><c>Pd</c><c>   1</c></rc>
    <rc><c>Pd</c><c>   1</c></rc>
    <rc><c>Pd</c><c>   1</c></rc>
    <rc><c>Pd</c><c>   1</c></rc>
    <rc><c>Pd</c><c>   1</c></rc>
    <rc><c>Pd</c><c>   1</c></rc>
    <rc><c>Pd</c><c>   1</c></rc>
    <rc><c>Pd</c><c>   1</c></rc>
    <rc><c>Pd</c><c>   1</c></rc>
    <rc><c>Pd</c><c>   1</c></rc>
    <rc><c>Pd</c><c>   1</c></rc>
    <rc><c>Pd</c><c>   1</c></rc>
    <rc><c>Pd</c><c>   1</c></rc>
    <rc><c>Pd</c><c>   1</c></rc>
    <rc><c>Pd</c><c>   1</c></rc>
    <rc><c>Pd</c><c>   1</c></rc>
    <rc><c>Pd</c><c>   1</c></rc>
    <rc><c>Pd</c><c>   1</c></rc>
    <rc><c>Pd</c><c>   1</c></rc>
    <rc><c>Pd</c><c>   1</c></rc>
    <rc><c>Pd</c><c>   1</c></rc>
    <rc><c>Pd</c><c>   1</c></rc>
    <rc><c>Pd</c><c>   1</c></rc>
    <rc><c>Pd</c><c>   1</c></rc>
    <rc><c>Pd</c><c>   1</c></rc>
   </set>
  </array>
  <array name="atomtypes" >
   <dimension dim="1">type</dimension>
   <field type="int">atomspertype</field>
   <field type="string">element</field>
   <field>mass</field>
   <field>valence</field>
   <field type="string">pseudopotential</field>
   <set>
    <rc><c>  27</c><c>Pd</c><c>    106.42000000</c><c>     16.00000000</c><c>  PAW_PBE Pd_pv 28Jan2005               </c></rc>
   </set>
  </array>
 </atominfo>
 <structure name="initialpos" >
  <crystal>
   <varray name="basis" >
    <v>       0.00000000       5.89050000       5.89050000 </v>
    <v>       5.89050000       0.00000000       5.89050000 </v>
    <v>       5.89050000       5.89050000       0.00000000 </v>
   </varray>
   <i name="volume">    408.77702314 </i>
   <varray name="rec_basis" >
    <v>      -0.08488244       0.08488244       0.08488244 </v>
    <v>       0.08488244      -0.08488244       0.08488244 </v>
    <v>       0.08488244       0.08488244      -0.08488244 </v>
   </varray>
  </crystal>
  <varray name="positions" >
   <v>       0.00120042       0.00000000       0.00000000 </v>
   <v>       0.33333333       0.00000000       0.00000000 </v>
   <v>       0.66666667       0.00000000       0.00000000 </v>
   <v>       0.00000000       0.33333333       0.00000000 </v>
   <v>       0.33333333       0.33333333       0.00000000 </v>
   <v>       0.66666667       0.33333333       0.00000000 </v>
   <v>       0.00000000       0.66666667       0.00000000 </v>
   <v>       0.33333333       0.66666667       0.00000000 </v>
   <v>       0.66666667       0.66666667       0.00000000 </v>
   <v>       0.00000000       0.00000000       0.33333333 </v>
   <v>       0.33333333       0.00000000       0.33333333 </v>
   <v>       0.66666667       0.00000000       0.33333333 </v>
   <v>       0.00000000       0.33333333       0.33333333 </v>
   <v>       0.33333333       0.33333333       0.33333333 </v>
   <v>       0.66666667       0.33333333       0.33333333 </v>
   <v>       0.00000000       0.66666667       0.33333333 </v>
   <v>       0.33333333       0.66666667       0.33333333 </v>
   <v>       0.66666667       0.66666667       0.33333333 </v>
   <v>       0.00000000       0.00000000       0.66666667 </v>
   <v>       0.33333333       0.00000000       0.66666667 </v>
   <v>       0.66666667       0.00000000       0.66666667 </v>
   <v>       0.00000000       0.33333333       0.66666667 </v>
   <v>       0.33333333       0.33333333       0.66666667 </v>
   <v>       0.66666667       0.33333333       0.66666667 </v>
   <v>       0.00000000       0.66666667       0.66666667 </v>
   <v>       0.33333333       0.66666667       0.66666667 </v>
   <v>       0.66666667       0.66666667       0.66666667 </v>
  </varray>
 </structure>
 <calculation>
  <scstep>
   <time name="dav"> 1088.41 1088.51</time>
   <time name="total"> 1094.12 1094.23</time>
   <energy>
    <i name="alphaZ">   3636.37249970 </i>
    <i name="ewald"> -58102.50555495 </i>
    <i name="hartreedc"> -15100.42683113 </i>
    <i name="XCdc">   2235.10004563 </i>
    <i name="pawpsdc">  60965.73861232 </i>
    <i name="pawaedc"> -60187.51078808 </i>
    <i name="eentropy">     -0.02068570 </i>
    <i name="bandstr">   1729.84289545 </i>
    <i name="atom">  70781.73722278 </i>
    <i name="e_fr_energy">   5958.32741603 </i>
    <i name="e_wo_entrp">   5958.34810173 </i>
    <i name="e_0_energy">   5958.33775888 </i>
   </energy>
  </scstep>
  <scstep>
   <time name="dav"> 1076.35 1076.45</time>
   <time name="total"> 1076.39 1076.49</time>
   <energy>
    <i name="e_fr_energy">    214.93974181 </i>
    <i name="e_wo_entrp">    215.02117633 </i>
    <i name="e_0_energy">    214.98045907 </i>
   </energy>
  </scstep>
  <scstep>
   <time name="dav"> 1118.18 1118.28</time>
   <time name="total"> 1118.22 1118.33</time>
   <energy>
    <i name="e_fr_energy">   -136.91881138 </i>
    <i name="e_wo_entrp">   -136.59369878 </i>
    <i name="e_0_energy">   -136.75625508 </i>
   </energy>
  </scstep>
  <scstep>
   <time name="dav"> 1108.83 1108.94</time>
   <time name="total"> 1108.87 1108.98</time>
   <energy>
    <i name="e_fr_energy">   -147.66386009 </i>
    <i name="e_wo_entrp">   -147.33284243 </i>
    <i name="e_0_energy">   -147.49835126 </i>
   </energy>
  </scstep>
  <scstep>
   <time name="dav"> 1093.42 1093.52</time>
   <time name="total"> 1190.62 1190.73</time>
   <energy>
    <i name="e_fr_energy">   -147.78006965 </i>
    <i name="e_wo_entrp">   -147.44899762 </i>
    <i name="e_0_energy">   -147.61453363 </i>
   </energy>
  </scstep>
  <scstep>
   <time name="dav"> 1079.38 1079.47</time>
   <time name="total"> 1182.13 1185.48</time>
   <energy>
    <i name="e_fr_energy">   -140.87651300 </i>
    <i name="e_wo_entrp">   -140.54803892 </i>
    <i name="e_0_energy">   -140.71227596 </i>
   </energy>
  </scstep>
  <scstep>
   <time name="dav"> 1074.45 1074.55</time>
   <time name="total"> 1175.91 1176.02</time>
   <energy>
    <i name="e_fr_energy">   -140.79718543 </i>
    <i name="e_wo_entrp">   -140.46991330 </i>
    <i name="e_0_energy">   -140.63354937 </i>
   </energy>
  </scstep>
  <scstep>
   <time name="dav"> 1088.09 1088.18</time>
   <time name="total"> 1189.67 1189.78</time>
   <energy>
    <i name="e_fr_energy">   -140.79017754 </i>
    <i name="e_wo_entrp">   -140.46612440 </i>
    <i name="e_0_energy">   -140.62815097 </i>
   </energy>
  </scstep>
  <scstep>
   <time name="dav"> 1102.76 1102.86</time>
   <time name="total"> 1204.28 1204.39</time>
   <energy>
    <i name="e_fr_energy">   -140.76463490 </i>
    <i name="e_wo_entrp">   -140.43786901 </i>
    <i name="e_0_energy">   -140.60125196 </i>
   </energy>
  </scstep>
  <scstep>
   <time name="dav"> 1103.76 1103.86</time>
   <time name="total"> 1206.57 1206.75</time>
   <energy>
    <i name="e_fr_energy">   -140.76470004 </i>
    <i name="e_wo_entrp">   -140.43793369 </i>
    <i name="e_0_energy">   -140.60131686 </i>
   </energy>
  </scstep>
  <scstep>
   <time name="dav"> 1077.45 1077.54</time>
   <time name="total"> 1179.01 1179.13</time>
   <energy>
    <i name="e_fr_energy">   -140.76465291 </i>
    <i name="e_wo_entrp">   -140.43789308 </i>
    <i name="e_0_energy">   -140.60127300 </i>
   </energy>
  </scstep>
  <scstep>
   <time name="dav"> 1080.93 1081.03</time>
   <time name="total"> 1182.25 1182.37</time>
   <energy>
    <i name="e_fr_energy">   -140.76463528 </i>
    <i name="e_wo_entrp">   -140.43788134 </i>
    <i name="e_0_energy">   -140.60125831 </i>
   </energy>
  </scstep>
  <scstep>
   <time name="dav"> 1078.20 1078.30</time>
   <time name="total"> 1179.21 1179.32</time>
   <energy>
    <i name="e_fr_energy">   -140.76460191 </i>
    <i name="e_wo_entrp">   -140.43786151 </i>
    <i name="e_0_energy">   -140.60123171 </i>
   </energy>
  </scstep>
  <scstep>
   <time name="dav"> 1075.56 1075.66</time>
   <time name="total"> 1176.80 1176.91</time>
   <energy>
    <i name="e_fr_energy">   -140.76458194 </i>
    <i name="e_wo_entrp">   -140.43785208 </i>
    <i name="e_0_energy">   -140.60121701 </i>
   </energy>
  </scstep>
  <scstep>
   <time name="dav"> 1084.43 1084.53</time>
   <time name="total"> 1186.88 1186.99</time>
   <energy>
    <i name="e_fr_energy">   -140.76457049 </i>
    <i name="e_wo_entrp">   -140.43784432 </i>
    <i name="e_0_energy">   -140.60120740 </i>
   </energy>
  </scstep>
  <scstep>
   <time name="dav"> 1188.67 1188.77</time>
   <time name="total"> 1289.16 1289.28</time>
   <energy>
    <i name="e_fr_energy">   -140.76457052 </i>
    <i name="e_wo_entrp">   -140.43784430 </i>
    <i name="e_0_energy">   -140.60120741 </i>
   </energy>
  </scstep>
  <scstep>
   <time name="dav"> 1072.30 1072.40</time>
   <time name="total"> 1174.02 1174.14</time>
   <energy>
    <i name="e_fr_energy">   -140.76457169 </i>
    <i name="e_wo_entrp">   -140.43784575 </i>
    <i name="e_0_energy">   -140.60120872 </i>
   </energy>
  </scstep>
  <scstep>
   <time name="dav"> 1031.74 1031.83</time>
   <time name="total"> 1133.50 1133.62</time>
   <energy>
    <i name="e_fr_energy">   -140.76457192 </i>
    <i name="e_wo_entrp">   -140.43784607 </i>
    <i name="e_0_energy">   -140.60120900 </i>
   </energy>
  </scstep>
  <scstep>
   <time name="dav">  724.91  724.98</time>
   <time name="total">  825.35  825.44</time>
   <energy>
    <i name="e_fr_energy">   -140.76457214 </i>
    <i name="e_wo_entrp">   -140.43784636 </i>
    <i name="e_0_energy">   -140.60120925 </i>
   </energy>
  </scstep>
  <scstep>
   <time name="dav">  704.07  704.13</time>
   <time name="total">  805.75  805.83</time>
   <energy>
    <i name="e_fr_energy">   -140.76457223 </i>
    <i name="e_wo_entrp">   -140.43784646 </i>
    <i name="e_0_energy">   -140.60120935 </i>
   </energy>
  </scstep>
  <scstep>
   <time name="dav">  689.03  689.09</time>
   <time name="total">  789.35  789.43</time>
   <energy>
    <i name="e_fr_energy">   -140.76457237 </i>
    <i name="e_wo_entrp">   -140.43784661 </i>
    <i name="e_0_energy">   -140.60120949 </i>
   </energy>
  </scstep>
  <scstep>
   <time name="dav">  687.16  687.25</time>
   <time name="total">  787.58  787.69</time>
   <energy>
    <i name="e_fr_energy">   -140.76457251 </i>
    <i name="e_wo_entrp">   -140.43784675 </i>
    <i name="e_0_energy">   -140.60120963 </i>
   </energy>
  </scstep>
  <scstep>
   <time name="dav">  688.36  688.42</time>
   <time name="total">  788.68  788.76</time>
   <energy>
    <i name="e_fr_energy">   -140.76457252 </i>
    <i name="e_wo_entrp">   -140.43784676 </i>
    <i name="e_0_energy">   -140.60120964 </i>
   </energy>
  </scstep>
  <scstep>
   <time name="dav">  686.80  686.86</time>
   <time name="total">  691.94  692.03</time>
   <energy>
    <i name="alphaZ">   3636.37249970 </i>
    <i name="ewald"> -58102.50555495 </i>
    <i name="hartreedc"> -14615.67320980 </i>
    <i name="XCdc">   2213.91246729 </i>
    <i name="pawpsdc">  64578.03558635 </i>
    <i name="pawaedc"> -63867.55157874 </i>
    <i name="eentropy">     -0.32672576 </i>
    <i name="bandstr">  -4764.76527941 </i>
    <i name="atom">  70781.73722278 </i>
    <i name="e_fr_energy">   -140.76457253 </i>
    <i name="e_wo_entrp">   -140.43784677 </i>
    <i name="e_0_energy">   -140.60120965 </i>
   </energy>
  </scstep>
  <structure>
   <crystal>
    <varray name="basis" >
     <v>       0.00000000       5.89050000       5.89050000 </v>
     <v>       5.89050000       0.00000000       5.89050000 </v>
     <v>       5.89050000       5.89050000       0.00000000 </v>
    </varray>
    <i name="volume">    408.77702314 </i>
    <varray name="rec_basis" >
     <v>      -0.08488244       0.08488244       0.08488244 </v>
     <v>       0.08488244      -0.08488244       0.08488244 </v>
     <v>       0.08488244       0.08488244      -0.08488244 </v>
    </varray>
   </crystal>
   <varray name="positions" >
    <v>       0.00120042       0.00000000       0.00000000 </v>
    <v>       0.33333333       0.00000000       0.00000000 </v>
    <v>       0.66666667       0.00000000       0.00000000 </v>
    <v>       0.00000000       0.33333333       0.00000000 </v>
    <v>       0.33333333       0.33333333       0.00000000 </v>
    <v>       0.66666667       0.33333333       0.00000000 </v>
    <v>       0.00000000       0.66666667       0.00000000 </v>
    <v>       0.33333333       0.66666667       0.00000000 </v>
    <v>       0.66666667       0.66666667       0.00000000 </v>
    <v>       0.00000000       0.00000000       0.33333333 </v>
    <v>       0.33333333       0.00000000       0.33333333 </v>
    <v>       0.66666667       0.00000000       0.33333333 </v>
    <v>       0.00000000       0.33333333       0.33333333 </v>
    <v>       0.33333333       0.33333333       0.33333333 </v>
    <v>       0.66666667       0.33333333       0.33333333 </v>
    <v>       0.00000000       0.66666667       0.33333333 </v>
    <v>       0.33333333       0.66666667       0.33333333 </v>
    <v>       0.66666667       0.66666667       0.33333333 </v>
    <v>       0.00000000       0.00000000       0.66666667 </v>
    <v>       0.33333333       0.00000000       0.66666667 </v>
    <v>       0.66666667       0.00000000       0.66666667 </v>
    <v>       0.00000000       0.33333333       0.66666667 </v>
    <v>       0.33333333       0.33333333       0.66666667 </v>
    <v>       0.66666667       0.33333333       0.66666667 </v>
    <v>       0.00000000       0.66666667       0.66666667 </v>
    <v>       0.33333333       0.66666667       0.66666667 </v>
    <v>       0.66666667       0.66666667       0.66666667 </v>
   </varray>
  </structure>
  <varray name="forces" >
   <v>       0.00006050      -0.06196212      -0.06153194 </v>
   <v>      -0.00017071       0.01686619       0.01679223 </v>
   <v>      -0.00016383       0.01604965       0.01597533 </v>
   <v>       0.00905843      -0.00102227       0.00756862 </v>
   <v>       0.00024177       0.00062260       0.00082213 </v>
   <v>      -0.00894613       0.00751755      -0.00111081 </v>
   <v>       0.00884717      -0.00097177       0.00741758 </v>
   <v>      -0.00915923       0.00767541      -0.00115506 </v>
   <v>       0.00020413       0.00062668       0.00082167 </v>
   <v>       0.00897022       0.00772783      -0.00079586 </v>
   <v>      -0.00002627       0.00076739       0.00069479 </v>
   <v>      -0.00875267      -0.00093440       0.00726132 </v>
   <v>       0.00037187       0.00015094       0.00025790 </v>
   <v>      -0.00047955       0.00011101       0.00028525 </v>
   <v>       0.00003517       0.00030786      -0.00002414 </v>
   <v>       0.00006345      -0.00114753      -0.00115082 </v>
   <v>       0.00001645       0.00049619       0.00004220 </v>
   <v>       0.00004049      -0.00008352       0.00053939 </v>
   <v>       0.00875724       0.00756778      -0.00074786 </v>
   <v>      -0.00895919      -0.00098186       0.00741422 </v>
   <v>      -0.00006065       0.00076769       0.00069547 </v>
   <v>       0.00006402      -0.00114337      -0.00116005 </v>
   <v>       0.00004286      -0.00008149       0.00053193 </v>
   <v>       0.00001434       0.00049928       0.00003835 </v>
   <v>       0.00036767       0.00014263       0.00024782 </v>
   <v>       0.00004546       0.00030629      -0.00002481 </v>
   <v>      -0.00048301       0.00012536       0.00029516 </v>
  </varray>
  <varray name="stress" >
   <v>      22.48779804      -0.79932573       0.22054728 </v>
   <v>      -0.79931002      22.04483934       0.56792103 </v>
   <v>       0.22053670       0.56790276      21.11524024 </v>
  </varray>
  <energy>
   <i name="e_fr_energy">   -140.76457253 </i>
   <i name="e_wo_entrp">   -140.60120965 </i>
   <i name="e_0_energy">     -0.32672576 </i>
  </energy>
  <time name="totalsc">26679.1126685.45</time>
  <eigenvalues>
   <array>
    <dimension dim="1">band</dimension>
    <dimension dim="2">kpoint</dimension>
    <dimension dim="3">spin</dimension>
    <field>eigene</field>
    <field>occ</field>
    <set>
     <set comment="spin 1">
      <set comment="kpoint 1">
       <r>  -40.7457    1.0000 </r>
       <r>  -40.7141    1.0000 </r>
       <r>  -40.7127    1.0000 </r>
       <r>  -40.7075    1.0000 </r>
       <r>  -40.6977    1.0000 </r>
       <r>  -40.6973    1.0000 </r>
       <r>  -40.6964    1.0000 </r>
       <r>  -40.6951    1.0000 </r>
       <r>  -40.6939    1.0000 </r>
       <r>  -40.6933    1.0000 </r>
       <r>  -40.6929    1.0000 </r>
       <r>  -40.6902    1.0000 </r>
       <r>  -40.6819    1.0000 </r>
       <r>  -40.6814    1.0000 </r>
       <r>  -40.6771    1.0000 </r>
       <r>  -40.6757    1.0000 </r>
       <r>  -40.6750    1.0000 </r>
       <r>  -40.6725    1.0000 </r>
       <r>  -40.6716    1.0000 </r>
       <r>  -40.6711    1.0000 </r>
       <r>  -40.6457    1.0000 </r>
       <r>  -40.6390    1.0000 </r>
       <r>  -40.6373    1.0000 </r>
       <r>  -40.6359    1.0000 </r>
       <r>  -40.6263    1.0000 </r>
       <r>  -40.6229    1.0000 </r>
       <r>  -40.6176    1.0000 </r>
       <r>  -40.6143    1.0000 </r>
       <r>  -40.6106    1.0000 </r>
       <r>  -40.6083    1.0000 </r>
       <r>  -40.6062    1.0000 </r>
       <r>  -40.6016    1.0000 </r>
       <r>  -40.5991    1.0000 </r>
       <r>  -40.5986    1.0000 </r>
       <r>  -40.5890    1.0000 </r>
       <r>  -40.5881    1.0000 </r>
       <r>  -40.5874    1.0000 </r>
       <r>  -40.5807    1.0000 </r>
       <r>  -40.5273    1.0000 </r>
       <r>  -40.5238    1.0000 </r>
       <r>  -40.5235    1.0000 </r>
       <r>  -40.5207    1.0000 </r>
       <r>  -40.5121    1.0000 </r>
       <r>  -40.5119    1.0000 </r>
       <r>  -40.5089    1.0000 </r>
       <r>  -40.5087    1.0000 </r>
       <r>  -40.5064    1.0000 </r>
       <r>  -40.5059    1.0000 </r>
       <r>  -40.5025    1.0000 </r>
       <r>  -40.4961    1.0000 </r>
       <r>  -40.4956    1.0000 </r>
       <r>  -40.4954    1.0000 </r>
       <r>  -40.4937    1.0000 </r>
       <r>  -40.4928    1.0000 </r>
       <r>  -40.4917    1.0000 </r>
       <r>  -40.4865    1.0000 </r>
       <r>  -40.4856    1.0000 </r>
       <r>  -40.4797    1.0000 </r>
       <r>  -40.4773    1.0000 </r>
       <r>  -40.4744    1.0000 </r>
       <r>  -40.4714    1.0000 </r>
       <r>  -40.4671    1.0000 </r>
       <r>  -40.4669    1.0000 </r>
       <r>  -40.4647    1.0000 </r>
       <r>  -40.4647    1.0000 </r>
       <r>  -40.4525    1.0000 </r>
       <r>  -40.4516    1.0000 </r>
       <r>  -40.4504    1.0000 </r>
       <r>  -40.4485    1.0000 </r>
       <r>  -40.4462    1.0000 </r>
       <r>  -40.4457    1.0000 </r>
       <r>  -40.4438    1.0000 </r>
       <r>  -40.4408    1.0000 </r>
       <r>  -40.4363    1.0000 </r>
       <r>  -40.4353    1.0000 </r>
       <r>  -40.4343    1.0000 </r>
       <r>  -40.4292    1.0000 </r>
       <r>  -40.4244    1.0000 </r>
       <r>  -40.4223    1.0000 </r>
       <r>  -40.4046    1.0000 </r>
       <r>  -40.3991    1.0000 </r>
       <r>    2.5013    1.0000 </r>
       <r>    3.9335    1.0000 </r>
       <r>    4.1537    1.0000 </r>
       <r>    4.2830    1.0000 </r>
       <r>    4.3047    1.0000 </r>
       <r>    4.3123    1.0000 </r>
       <r>    4.3323    1.0000 </r>
       <r>    4.3458    1.0000 </r>
       <r>    4.3794    1.0000 </r>
       <r>    4.4073    1.0000 </r>
       <r>    4.4830    1.0000 </r>
       <r>    4.4999    1.0000 </r>
       <r>    4.5498    1.0000 </r>
       <r>    4.5882    1.0000 </r>
       <r>    4.6397    1.0000 </r>
       <r>    4.6559    1.0000 </r>
       <r>    4.6847    1.0000 </r>
       <r>    4.6850    1.0000 </r>
       <r>    4.7163    1.0000 </r>
       <r>    4.7390    1.0000 </r>
       <r>    4.7581    1.0000 </r>
       <r>    5.0188    1.0000 </r>
       <r>    5.0380    1.0000 </r>
       <r>    5.0506    1.0000 </r>
       <r>    5.0532    1.0000 </r>
       <r>    5.0628    1.0000 </r>
       <r>    5.0721    1.0000 </r>
       <r>    5.1201    1.0000 </r>
       <r>    5.1635    1.0000 </r>
       <r>    5.1681    1.0000 </r>
       <r>    5.1935    1.0000 </r>
       <r>    5.2575    1.0000 </r>
       <r>    5.2607    1.0000 </r>
       <r>    5.2984    1.0000 </r>
       <r>    5.3161    1.0000 </r>
       <r>    5.3901    1.0000 </r>
       <r>    5.5596    1.0000 </r>
       <r>    5.5764    1.0000 </r>
       <r>    5.6568    1.0000 </r>
       <r>    5.6723    1.0000 </r>
       <r>    5.7113    1.0000 </r>
       <r>    5.7132    1.0000 </r>
       <r>    5.8571    1.0000 </r>
       <r>    5.9091    1.0000 </r>
       <r>    5.9249    1.0000 </r>
       <r>    6.3099    1.0000 </r>
       <r>    6.3282    1.0000 </r>
       <r>    6.3448    1.0000 </r>
       <r>    6.3698    1.0000 </r>
       <r>    6.3750    1.0000 </r>
       <r>    6.4106    1.0000 </r>
       <r>    6.4580    1.0000 </r>
       <r>    6.4583    1.0000 </r>
       <r>    6.4650    1.0000 </r>
       <r>    6.4829    1.0000 </r>
       <r>    6.5045    1.0000 </r>
       <r>    6.5047    1.0000 </r>
       <r>    6.5068    1.0000 </r>
       <r>    6.5109    1.0000 </r>
       <r>    6.5603    1.0000 </r>
       <r>    6.5614    1.0000 </r>
       <r>    6.5681    1.0000 </r>
       <r>    6.5973    1.0000 </r>
       <r>    6.6038    1.0000 </r>
       <r>    6.6205    1.0000 </r>
       <r>    6.6481    1.0000 </r>
       <r>    6.6520    1.0000 </r>
       <r>    6.6584    1.0000 </r>
       <r>    6.6613    1.0000 </r>
       <r>    6.6723    1.0000 </r>
       <r>    6.7529    1.0000 </r>
       <r>    6.7619    1.0000 </r>
       <r>    6.7649    1.0000 </r>
       <r>    6.8134    1.0000 </r>
       <r>    6.8310    1.0000 </r>
       <r>    6.8402    1.0000 </r>
       <r>    6.8407    1.0000 </r>
       <r>    7.0624    1.0000 </r>
       <r>    7.0801    1.0000 </r>
       <r>    7.2902    1.0000 </r>
       <r>    7.2941    1.0000 </r>
       <r>    7.2981    1.0000 </r>
       <r>    7.3081    1.0000 </r>
       <r>    7.3346    1.0000 </r>
       <r>    7.4096    1.0000 </r>
       <r>    7.4877    1.0000 </r>
       <r>    7.4901    1.0000 </r>
       <r>    7.5465    1.0000 </r>
       <r>    7.6277    1.0000 </r>
       <r>    7.6929    1.0000 </r>
       <r>    7.7198    1.0000 </r>
       <r>    7.7539    1.0000 </r>
       <r>    7.7774    1.0000 </r>
       <r>    7.8206    1.0000 </r>
       <r>    7.9261    1.0000 </r>
       <r>    7.9299    1.0000 </r>
       <r>    7.9320    1.0000 </r>
       <r>    7.9733    1.0000 </r>
       <r>    7.9821    1.0000 </r>
       <r>    7.9867    1.0000 </r>
       <r>    7.9912    1.0000 </r>
       <r>    8.0225    1.0000 </r>
       <r>    8.0234    1.0000 </r>
       <r>    8.0609    1.0000 </r>
       <r>    8.2390    1.0000 </r>
       <r>    8.2683    1.0000 </r>
       <r>    8.2950    1.0000 </r>
       <r>    8.3019    1.0000 </r>
       <r>    8.3536    1.0000 </r>
       <r>    8.3778    1.0000 </r>
       <r>    8.3780    1.0000 </r>
       <r>    8.4104    1.0000 </r>
       <r>    8.4422    1.0000 </r>
       <r>    8.4781    1.0000 </r>
       <r>    8.5317    1.0000 </r>
       <r>    8.6295    1.0000 </r>
       <r>    8.6361    1.0000 </r>
       <r>    8.6547    1.0000 </r>
       <r>    8.6606    1.0000 </r>
       <r>    8.6693    1.0000 </r>
       <r>    8.7092    1.0000 </r>
       <r>    8.7382    1.0000 </r>
       <r>    8.7401    1.0000 </r>
       <r>    8.7558    1.0000 </r>
       <r>    8.7943    1.0000 </r>
       <r>    8.7995    1.0000 </r>
       <r>    8.8239    1.0000 </r>
       <r>    8.8366    1.0000 </r>
       <r>    8.8490    1.0000 </r>
       <r>    8.9266    0.9999 </r>
       <r>    8.9459    0.9998 </r>
       <r>    9.0190    0.9933 </r>
       <r>    9.0262    0.9912 </r>
       <r>    9.0301    0.9898 </r>
       <r>    9.0487    0.9801 </r>
       <r>    9.0908    0.9278 </r>
       <r>    9.0971    0.9148 </r>
       <r>    9.1031    0.9006 </r>
       <r>    9.1109    0.8800 </r>
       <r>    9.1130    0.8739 </r>
       <r>    9.1834    0.5596 </r>
       <r>    9.1881    0.5331 </r>
       <r>    9.2423    0.2474 </r>
       <r>    9.5172    0.0000 </r>
       <r>    9.5212    0.0000 </r>
       <r>    9.7736    0.0000 </r>
       <r>    9.8022    0.0000 </r>
       <r>   10.5668    0.0000 </r>
       <r>   10.6242    0.0000 </r>
       <r>   10.9261    0.0000 </r>
       <r>   12.9499    0.0000 </r>
       <r>   13.0222    0.0000 </r>
       <r>   13.5523    0.0000 </r>
       <r>   14.5853    0.0000 </r>
       <r>   14.6762    0.0000 </r>
       <r>   15.0384    0.0000 </r>
       <r>   15.1706    0.0000 </r>
       <r>   15.2409    0.0000 </r>
       <r>   15.6163    0.0000 </r>
       <r>   15.6265    0.0000 </r>
       <r>   15.9345    0.0000 </r>
       <r>   15.9855    0.0000 </r>
       <r>   16.7760    0.0000 </r>
       <r>   16.8583    0.0000 </r>
       <r>   17.0117    0.0000 </r>
       <r>   17.0264    0.0000 </r>
       <r>   17.1607    0.0000 </r>
       <r>   17.4424    0.0000 </r>
       <r>   17.4996    0.0000 </r>
       <r>   17.7023    0.0000 </r>
       <r>   17.7980    0.0000 </r>
       <r>   18.0413    0.0000 </r>
       <r>   18.0871    0.0000 </r>
       <r>   19.0624    0.0000 </r>
       <r>   19.0921    0.0000 </r>
       <r>   19.2151    0.0000 </r>
       <r>   19.2581    0.0000 </r>
       <r>   20.1881    0.0000 </r>
      </set>
      <set comment="kpoint 2">
       <r>  -40.7579    1.0000 </r>
       <r>  -40.7509    1.0000 </r>
       <r>  -40.7292    1.0000 </r>
       <r>  -40.7247    1.0000 </r>
       <r>  -40.7199    1.0000 </r>
       <r>  -40.7195    1.0000 </r>
       <r>  -40.7180    1.0000 </r>
       <r>  -40.7159    1.0000 </r>
       <r>  -40.7113    1.0000 </r>
       <r>  -40.7013    1.0000 </r>
       <r>  -40.6988    1.0000 </r>
       <r>  -40.6988    1.0000 </r>
       <r>  -40.6961    1.0000 </r>
       <r>  -40.6899    1.0000 </r>
       <r>  -40.6823    1.0000 </r>
       <r>  -40.6817    1.0000 </r>
       <r>  -40.6701    1.0000 </r>
       <r>  -40.6684    1.0000 </r>
       <r>  -40.6663    1.0000 </r>
       <r>  -40.6616    1.0000 </r>
       <r>  -40.6611    1.0000 </r>
       <r>  -40.6601    1.0000 </r>
       <r>  -40.6302    1.0000 </r>
       <r>  -40.6224    1.0000 </r>
       <r>  -40.6027    1.0000 </r>
       <r>  -40.5895    1.0000 </r>
       <r>  -40.5844    1.0000 </r>
       <r>  -40.5790    1.0000 </r>
       <r>  -40.5776    1.0000 </r>
       <r>  -40.5703    1.0000 </r>
       <r>  -40.5675    1.0000 </r>
       <r>  -40.5523    1.0000 </r>
       <r>  -40.5512    1.0000 </r>
       <r>  -40.5504    1.0000 </r>
       <r>  -40.5480    1.0000 </r>
       <r>  -40.5466    1.0000 </r>
       <r>  -40.5404    1.0000 </r>
       <r>  -40.5377    1.0000 </r>
       <r>  -40.5356    1.0000 </r>
       <r>  -40.5315    1.0000 </r>
       <r>  -40.5298    1.0000 </r>
       <r>  -40.5294    1.0000 </r>
       <r>  -40.5289    1.0000 </r>
       <r>  -40.5257    1.0000 </r>
       <r>  -40.5253    1.0000 </r>
       <r>  -40.5228    1.0000 </r>
       <r>  -40.5109    1.0000 </r>
       <r>  -40.5088    1.0000 </r>
       <r>  -40.5084    1.0000 </r>
       <r>  -40.5070    1.0000 </r>
       <r>  -40.5033    1.0000 </r>
       <r>  -40.5028    1.0000 </r>
       <r>  -40.5022    1.0000 </r>
       <r>  -40.4961    1.0000 </r>
       <r>  -40.4952    1.0000 </r>
       <r>  -40.4949    1.0000 </r>
       <r>  -40.4893    1.0000 </r>
       <r>  -40.4808    1.0000 </r>
       <r>  -40.4800    1.0000 </r>
       <r>  -40.4797    1.0000 </r>
       <r>  -40.4768    1.0000 </r>
       <r>  -40.4757    1.0000 </r>
       <r>  -40.4728    1.0000 </r>
       <r>  -40.4720    1.0000 </r>
       <r>  -40.4717    1.0000 </r>
       <r>  -40.4710    1.0000 </r>
       <r>  -40.4562    1.0000 </r>
       <r>  -40.4556    1.0000 </r>
       <r>  -40.4555    1.0000 </r>
       <r>  -40.4519    1.0000 </r>
       <r>  -40.4498    1.0000 </r>
       <r>  -40.4495    1.0000 </r>
       <r>  -40.4483    1.0000 </r>
       <r>  -40.4476    1.0000 </r>
       <r>  -40.4464    1.0000 </r>
       <r>  -40.4394    1.0000 </r>
       <r>  -40.4310    1.0000 </r>
       <r>  -40.4279    1.0000 </r>
       <r>  -40.4224    1.0000 </r>
       <r>  -40.4221    1.0000 </r>
       <r>  -40.4062    1.0000 </r>
       <r>    3.0793    1.0000 </r>
       <r>    3.6569    1.0000 </r>
       <r>    3.9073    1.0000 </r>
       <r>    4.2709    1.0000 </r>
       <r>    4.2732    1.0000 </r>
       <r>    4.3585    1.0000 </r>
       <r>    4.3777    1.0000 </r>
       <r>    4.4405    1.0000 </r>
       <r>    4.5226    1.0000 </r>
       <r>    4.5895    1.0000 </r>
       <r>    4.5931    1.0000 </r>
       <r>    4.6624    1.0000 </r>
       <r>    4.6643    1.0000 </r>
       <r>    4.7192    1.0000 </r>
       <r>    4.7494    1.0000 </r>
       <r>    4.7784    1.0000 </r>
       <r>    4.7984    1.0000 </r>
       <r>    4.8053    1.0000 </r>
       <r>    4.8119    1.0000 </r>
       <r>    4.8194    1.0000 </r>
       <r>    4.8437    1.0000 </r>
       <r>    4.8956    1.0000 </r>
       <r>    4.9501    1.0000 </r>
       <r>    4.9591    1.0000 </r>
       <r>    4.9595    1.0000 </r>
       <r>    4.9924    1.0000 </r>
       <r>    5.0527    1.0000 </r>
       <r>    5.1575    1.0000 </r>
       <r>    5.1831    1.0000 </r>
       <r>    5.2343    1.0000 </r>
       <r>    5.3161    1.0000 </r>
       <r>    5.3311    1.0000 </r>
       <r>    5.3689    1.0000 </r>
       <r>    5.3779    1.0000 </r>
       <r>    5.4426    1.0000 </r>
       <r>    5.4719    1.0000 </r>
       <r>    5.4809    1.0000 </r>
       <r>    5.5135    1.0000 </r>
       <r>    5.7465    1.0000 </r>
       <r>    5.7539    1.0000 </r>
       <r>    5.7773    1.0000 </r>
       <r>    5.8430    1.0000 </r>
       <r>    5.8659    1.0000 </r>
       <r>    5.8785    1.0000 </r>
       <r>    5.8946    1.0000 </r>
       <r>    5.9117    1.0000 </r>
       <r>    5.9917    1.0000 </r>
       <r>    6.0191    1.0000 </r>
       <r>    6.0612    1.0000 </r>
       <r>    6.0858    1.0000 </r>
       <r>    6.1365    1.0000 </r>
       <r>    6.1716    1.0000 </r>
       <r>    6.2452    1.0000 </r>
       <r>    6.2567    1.0000 </r>
       <r>    6.2655    1.0000 </r>
       <r>    6.3002    1.0000 </r>
       <r>    6.3103    1.0000 </r>
       <r>    6.3334    1.0000 </r>
       <r>    6.3646    1.0000 </r>
       <r>    6.3686    1.0000 </r>
       <r>    6.3811    1.0000 </r>
       <r>    6.5710    1.0000 </r>
       <r>    6.6567    1.0000 </r>
       <r>    6.6587    1.0000 </r>
       <r>    6.6714    1.0000 </r>
       <r>    6.6852    1.0000 </r>
       <r>    6.6945    1.0000 </r>
       <r>    6.7352    1.0000 </r>
       <r>    6.7396    1.0000 </r>
       <r>    6.7585    1.0000 </r>
       <r>    6.7787    1.0000 </r>
       <r>    6.8214    1.0000 </r>
       <r>    6.8369    1.0000 </r>
       <r>    6.8392    1.0000 </r>
       <r>    6.8462    1.0000 </r>
       <r>    6.8921    1.0000 </r>
       <r>    6.8999    1.0000 </r>
       <r>    6.9182    1.0000 </r>
       <r>    6.9479    1.0000 </r>
       <r>    6.9939    1.0000 </r>
       <r>    7.0166    1.0000 </r>
       <r>    7.1951    1.0000 </r>
       <r>    7.1973    1.0000 </r>
       <r>    7.2079    1.0000 </r>
       <r>    7.2382    1.0000 </r>
       <r>    7.2521    1.0000 </r>
       <r>    7.2684    1.0000 </r>
       <r>    7.2996    1.0000 </r>
       <r>    7.3543    1.0000 </r>
       <r>    7.3779    1.0000 </r>
       <r>    7.5209    1.0000 </r>
       <r>    7.6002    1.0000 </r>
       <r>    7.6117    1.0000 </r>
       <r>    7.7439    1.0000 </r>
       <r>    7.7617    1.0000 </r>
       <r>    7.7821    1.0000 </r>
       <r>    7.8550    1.0000 </r>
       <r>    7.8705    1.0000 </r>
       <r>    7.9073    1.0000 </r>
       <r>    7.9246    1.0000 </r>
       <r>    7.9397    1.0000 </r>
       <r>    7.9441    1.0000 </r>
       <r>    7.9588    1.0000 </r>
       <r>    7.9623    1.0000 </r>
       <r>    7.9698    1.0000 </r>
       <r>    8.0411    1.0000 </r>
       <r>    8.0444    1.0000 </r>
       <r>    8.1371    1.0000 </r>
       <r>    8.1523    1.0000 </r>
       <r>    8.1563    1.0000 </r>
       <r>    8.2700    1.0000 </r>
       <r>    8.2839    1.0000 </r>
       <r>    8.3422    1.0000 </r>
       <r>    8.3783    1.0000 </r>
       <r>    8.3948    1.0000 </r>
       <r>    8.4185    1.0000 </r>
       <r>    8.5090    1.0000 </r>
       <r>    8.5922    1.0000 </r>
       <r>    8.8019    1.0000 </r>
       <r>    8.8127    1.0000 </r>
       <r>    8.8371    1.0000 </r>
       <r>    8.8703    1.0000 </r>
       <r>    8.8752    1.0000 </r>
       <r>    8.8801    1.0000 </r>
       <r>    8.9295    0.9999 </r>
       <r>    8.9563    0.9996 </r>
       <r>    8.9642    0.9994 </r>
       <r>    9.0585    0.9723 </r>
       <r>    9.0652    0.9657 </r>
       <r>    9.1275    0.8263 </r>
       <r>    9.1426    0.7664 </r>
       <r>    9.1547    0.7108 </r>
       <r>    9.1728    0.6179 </r>
       <r>    9.1799    0.5790 </r>
       <r>    9.2170    0.3726 </r>
       <r>    9.2199    0.3570 </r>
       <r>    9.2347    0.2826 </r>
       <r>    9.2723    0.1339 </r>
       <r>    9.2873    0.0935 </r>
       <r>    9.3309    0.0264 </r>
       <r>    9.9552    0.0000 </r>
       <r>   10.1120    0.0000 </r>
       <r>   10.3017    0.0000 </r>
       <r>   10.4596    0.0000 </r>
       <r>   10.6249    0.0000 </r>
       <r>   10.9903    0.0000 </r>
       <r>   11.2059    0.0000 </r>
       <r>   11.2303    0.0000 </r>
       <r>   11.4383    0.0000 </r>
       <r>   12.6328    0.0000 </r>
       <r>   12.7743    0.0000 </r>
       <r>   12.8326    0.0000 </r>
       <r>   12.8777    0.0000 </r>
       <r>   13.2508    0.0000 </r>
       <r>   13.3781    0.0000 </r>
       <r>   13.5706    0.0000 </r>
       <r>   13.7969    0.0000 </r>
       <r>   13.9737    0.0000 </r>
       <r>   14.0431    0.0000 </r>
       <r>   14.2206    0.0000 </r>
       <r>   15.6097    0.0000 </r>
       <r>   16.1154    0.0000 </r>
       <r>   16.5364    0.0000 </r>
       <r>   16.8275    0.0000 </r>
       <r>   17.0125    0.0000 </r>
       <r>   17.3423    0.0000 </r>
       <r>   17.4022    0.0000 </r>
       <r>   17.7586    0.0000 </r>
       <r>   18.0998    0.0000 </r>
       <r>   18.2772    0.0000 </r>
       <r>   18.4057    0.0000 </r>
       <r>   18.5671    0.0000 </r>
       <r>   18.7380    0.0000 </r>
       <r>   18.7429    0.0000 </r>
       <r>   19.5089    0.0000 </r>
       <r>   20.0795    0.0000 </r>
       <r>   20.2109    0.0000 </r>
       <r>   20.2583    0.0000 </r>
      </set>
      <set comment="kpoint 3">
       <r>  -40.7477    1.0000 </r>
       <r>  -40.7432    1.0000 </r>
       <r>  -40.7360    1.0000 </r>
       <r>  -40.7276    1.0000 </r>
       <r>  -40.7246    1.0000 </r>
       <r>  -40.7158    1.0000 </r>
       <r>  -40.7103    1.0000 </r>
       <r>  -40.7100    1.0000 </r>
       <r>  -40.7091    1.0000 </r>
       <r>  -40.7070    1.0000 </r>
       <r>  -40.6965    1.0000 </r>
       <r>  -40.6959    1.0000 </r>
       <r>  -40.6913    1.0000 </r>
       <r>  -40.6889    1.0000 </r>
       <r>  -40.6874    1.0000 </r>
       <r>  -40.6806    1.0000 </r>
       <r>  -40.6768    1.0000 </r>
       <r>  -40.6752    1.0000 </r>
       <r>  -40.6678    1.0000 </r>
       <r>  -40.6670    1.0000 </r>
       <r>  -40.6449    1.0000 </r>
       <r>  -40.6360    1.0000 </r>
       <r>  -40.6296    1.0000 </r>
       <r>  -40.6287    1.0000 </r>
       <r>  -40.6035    1.0000 </r>
       <r>  -40.6015    1.0000 </r>
       <r>  -40.5961    1.0000 </r>
       <r>  -40.5817    1.0000 </r>
       <r>  -40.5735    1.0000 </r>
       <r>  -40.5724    1.0000 </r>
       <r>  -40.5695    1.0000 </r>
       <r>  -40.5652    1.0000 </r>
       <r>  -40.5640    1.0000 </r>
       <r>  -40.5628    1.0000 </r>
       <r>  -40.5618    1.0000 </r>
       <r>  -40.5566    1.0000 </r>
       <r>  -40.5448    1.0000 </r>
       <r>  -40.5428    1.0000 </r>
       <r>  -40.5410    1.0000 </r>
       <r>  -40.5389    1.0000 </r>
       <r>  -40.5335    1.0000 </r>
       <r>  -40.5288    1.0000 </r>
       <r>  -40.5268    1.0000 </r>
       <r>  -40.5250    1.0000 </r>
       <r>  -40.5247    1.0000 </r>
       <r>  -40.5241    1.0000 </r>
       <r>  -40.5209    1.0000 </r>
       <r>  -40.5113    1.0000 </r>
       <r>  -40.5082    1.0000 </r>
       <r>  -40.4984    1.0000 </r>
       <r>  -40.4943    1.0000 </r>
       <r>  -40.4927    1.0000 </r>
       <r>  -40.4924    1.0000 </r>
       <r>  -40.4894    1.0000 </r>
       <r>  -40.4812    1.0000 </r>
       <r>  -40.4799    1.0000 </r>
       <r>  -40.4798    1.0000 </r>
       <r>  -40.4791    1.0000 </r>
       <r>  -40.4781    1.0000 </r>
       <r>  -40.4763    1.0000 </r>
       <r>  -40.4760    1.0000 </r>
       <r>  -40.4747    1.0000 </r>
       <r>  -40.4732    1.0000 </r>
       <r>  -40.4702    1.0000 </r>
       <r>  -40.4684    1.0000 </r>
       <r>  -40.4621    1.0000 </r>
       <r>  -40.4618    1.0000 </r>
       <r>  -40.4613    1.0000 </r>
       <r>  -40.4602    1.0000 </r>
       <r>  -40.4581    1.0000 </r>
       <r>  -40.4572    1.0000 </r>
       <r>  -40.4508    1.0000 </r>
       <r>  -40.4505    1.0000 </r>
       <r>  -40.4480    1.0000 </r>
       <r>  -40.4449    1.0000 </r>
       <r>  -40.4333    1.0000 </r>
       <r>  -40.4323    1.0000 </r>
       <r>  -40.4227    1.0000 </r>
       <r>  -40.4192    1.0000 </r>
       <r>  -40.4178    1.0000 </r>
       <r>  -40.4108    1.0000 </r>
       <r>    2.8881    1.0000 </r>
       <r>    3.9735    1.0000 </r>
       <r>    4.0663    1.0000 </r>
       <r>    4.1423    1.0000 </r>
       <r>    4.2167    1.0000 </r>
       <r>    4.3137    1.0000 </r>
       <r>    4.3528    1.0000 </r>
       <r>    4.3970    1.0000 </r>
       <r>    4.4679    1.0000 </r>
       <r>    4.5602    1.0000 </r>
       <r>    4.5687    1.0000 </r>
       <r>    4.5986    1.0000 </r>
       <r>    4.6408    1.0000 </r>
       <r>    4.6899    1.0000 </r>
       <r>    4.7415    1.0000 </r>
       <r>    4.7900    1.0000 </r>
       <r>    4.8061    1.0000 </r>
       <r>    4.8165    1.0000 </r>
       <r>    4.8248    1.0000 </r>
       <r>    4.8439    1.0000 </r>
       <r>    4.8526    1.0000 </r>
       <r>    4.8617    1.0000 </r>
       <r>    4.8760    1.0000 </r>
       <r>    4.8883    1.0000 </r>
       <r>    4.9575    1.0000 </r>
       <r>    5.0038    1.0000 </r>
       <r>    5.1327    1.0000 </r>
       <r>    5.1507    1.0000 </r>
       <r>    5.2024    1.0000 </r>
       <r>    5.2055    1.0000 </r>
       <r>    5.2409    1.0000 </r>
       <r>    5.3607    1.0000 </r>
       <r>    5.3853    1.0000 </r>
       <r>    5.4047    1.0000 </r>
       <r>    5.4902    1.0000 </r>
       <r>    5.5056    1.0000 </r>
       <r>    5.5718    1.0000 </r>
       <r>    5.6204    1.0000 </r>
       <r>    5.6536    1.0000 </r>
       <r>    5.6933    1.0000 </r>
       <r>    5.6965    1.0000 </r>
       <r>    5.7513    1.0000 </r>
       <r>    5.8080    1.0000 </r>
       <r>    5.8296    1.0000 </r>
       <r>    5.8639    1.0000 </r>
       <r>    5.9657    1.0000 </r>
       <r>    6.0295    1.0000 </r>
       <r>    6.0299    1.0000 </r>
       <r>    6.0543    1.0000 </r>
       <r>    6.0902    1.0000 </r>
       <r>    6.1268    1.0000 </r>
       <r>    6.1720    1.0000 </r>
       <r>    6.1925    1.0000 </r>
       <r>    6.2008    1.0000 </r>
       <r>    6.2448    1.0000 </r>
       <r>    6.2460    1.0000 </r>
       <r>    6.2847    1.0000 </r>
       <r>    6.3001    1.0000 </r>
       <r>    6.4849    1.0000 </r>
       <r>    6.5910    1.0000 </r>
       <r>    6.5944    1.0000 </r>
       <r>    6.6347    1.0000 </r>
       <r>    6.6691    1.0000 </r>
       <r>    6.6771    1.0000 </r>
       <r>    6.7263    1.0000 </r>
       <r>    6.7388    1.0000 </r>
       <r>    6.7758    1.0000 </r>
       <r>    6.7905    1.0000 </r>
       <r>    6.7924    1.0000 </r>
       <r>    6.8261    1.0000 </r>
       <r>    6.8304    1.0000 </r>
       <r>    6.8552    1.0000 </r>
       <r>    6.9175    1.0000 </r>
       <r>    6.9313    1.0000 </r>
       <r>    6.9626    1.0000 </r>
       <r>    6.9673    1.0000 </r>
       <r>    6.9733    1.0000 </r>
       <r>    6.9967    1.0000 </r>
       <r>    7.0055    1.0000 </r>
       <r>    7.0280    1.0000 </r>
       <r>    7.0424    1.0000 </r>
       <r>    7.0590    1.0000 </r>
       <r>    7.0659    1.0000 </r>
       <r>    7.0756    1.0000 </r>
       <r>    7.1066    1.0000 </r>
       <r>    7.1755    1.0000 </r>
       <r>    7.2242    1.0000 </r>
       <r>    7.3658    1.0000 </r>
       <r>    7.4620    1.0000 </r>
       <r>    7.5700    1.0000 </r>
       <r>    7.6032    1.0000 </r>
       <r>    7.6066    1.0000 </r>
       <r>    7.6428    1.0000 </r>
       <r>    7.6923    1.0000 </r>
       <r>    7.7197    1.0000 </r>
       <r>    7.7347    1.0000 </r>
       <r>    7.7657    1.0000 </r>
       <r>    7.7833    1.0000 </r>
       <r>    7.7912    1.0000 </r>
       <r>    7.8461    1.0000 </r>
       <r>    7.9100    1.0000 </r>
       <r>    7.9233    1.0000 </r>
       <r>    7.9639    1.0000 </r>
       <r>    7.9743    1.0000 </r>
       <r>    8.0084    1.0000 </r>
       <r>    8.0172    1.0000 </r>
       <r>    8.0526    1.0000 </r>
       <r>    8.0900    1.0000 </r>
       <r>    8.1270    1.0000 </r>
       <r>    8.1396    1.0000 </r>
       <r>    8.2161    1.0000 </r>
       <r>    8.2668    1.0000 </r>
       <r>    8.2794    1.0000 </r>
       <r>    8.5067    1.0000 </r>
       <r>    8.5275    1.0000 </r>
       <r>    8.5619    1.0000 </r>
       <r>    8.5989    1.0000 </r>
       <r>    8.6055    1.0000 </r>
       <r>    8.6713    1.0000 </r>
       <r>    8.6929    1.0000 </r>
       <r>    8.8627    1.0000 </r>
       <r>    8.8777    1.0000 </r>
       <r>    8.8914    1.0000 </r>
       <r>    8.9166    1.0000 </r>
       <r>    8.9439    0.9998 </r>
       <r>    8.9846    0.9985 </r>
       <r>    8.9878    0.9982 </r>
       <r>    9.0090    0.9956 </r>
       <r>    9.0188    0.9934 </r>
       <r>    9.0746    0.9543 </r>
       <r>    9.1139    0.8712 </r>
       <r>    9.1372    0.7890 </r>
       <r>    9.1527    0.7205 </r>
       <r>    9.1770    0.5948 </r>
       <r>    9.2802    0.1113 </r>
       <r>    9.2840    0.1016 </r>
       <r>    9.3242    0.0328 </r>
       <r>    9.3288    0.0283 </r>
       <r>    9.3355    0.0227 </r>
       <r>    9.3766    0.0049 </r>
       <r>    9.4994    0.0000 </r>
       <r>    9.8340    0.0000 </r>
       <r>   10.3886    0.0000 </r>
       <r>   10.5129    0.0000 </r>
       <r>   10.6310    0.0000 </r>
       <r>   10.8602    0.0000 </r>
       <r>   10.9044    0.0000 </r>
       <r>   10.9364    0.0000 </r>
       <r>   11.7293    0.0000 </r>
       <r>   11.7487    0.0000 </r>
       <r>   12.1981    0.0000 </r>
       <r>   12.6405    0.0000 </r>
       <r>   12.8901    0.0000 </r>
       <r>   13.5833    0.0000 </r>
       <r>   13.7412    0.0000 </r>
       <r>   13.7542    0.0000 </r>
       <r>   13.8564    0.0000 </r>
       <r>   13.9314    0.0000 </r>
       <r>   14.9607    0.0000 </r>
       <r>   15.2617    0.0000 </r>
       <r>   15.4774    0.0000 </r>
       <r>   16.4014    0.0000 </r>
       <r>   16.4557    0.0000 </r>
       <r>   17.0843    0.0000 </r>
       <r>   17.1322    0.0000 </r>
       <r>   17.1498    0.0000 </r>
       <r>   17.2665    0.0000 </r>
       <r>   17.3087    0.0000 </r>
       <r>   17.3921    0.0000 </r>
       <r>   18.2687    0.0000 </r>
       <r>   18.4556    0.0000 </r>
       <r>   18.9830    0.0000 </r>
       <r>   19.0175    0.0000 </r>
       <r>   19.1492    0.0000 </r>
       <r>   19.2067    0.0000 </r>
       <r>   19.3116    0.0000 </r>
       <r>   19.7857    0.0000 </r>
       <r>   19.7961    0.0000 </r>
      </set>
      <set comment="kpoint 4">
       <r>  -40.7510    1.0000 </r>
       <r>  -40.7419    1.0000 </r>
       <r>  -40.7199    1.0000 </r>
       <r>  -40.7142    1.0000 </r>
       <r>  -40.7113    1.0000 </r>
       <r>  -40.7065    1.0000 </r>
       <r>  -40.7056    1.0000 </r>
       <r>  -40.7028    1.0000 </r>
       <r>  -40.7004    1.0000 </r>
       <r>  -40.6976    1.0000 </r>
       <r>  -40.6970    1.0000 </r>
       <r>  -40.6961    1.0000 </r>
       <r>  -40.6926    1.0000 </r>
       <r>  -40.6868    1.0000 </r>
       <r>  -40.6826    1.0000 </r>
       <r>  -40.6720    1.0000 </r>
       <r>  -40.6719    1.0000 </r>
       <r>  -40.6710    1.0000 </r>
       <r>  -40.6693    1.0000 </r>
       <r>  -40.6625    1.0000 </r>
       <r>  -40.6598    1.0000 </r>
       <r>  -40.6577    1.0000 </r>
       <r>  -40.6380    1.0000 </r>
       <r>  -40.6321    1.0000 </r>
       <r>  -40.6131    1.0000 </r>
       <r>  -40.6019    1.0000 </r>
       <r>  -40.5983    1.0000 </r>
       <r>  -40.5949    1.0000 </r>
       <r>  -40.5933    1.0000 </r>
       <r>  -40.5888    1.0000 </r>
       <r>  -40.5865    1.0000 </r>
       <r>  -40.5857    1.0000 </r>
       <r>  -40.5771    1.0000 </r>
       <r>  -40.5727    1.0000 </r>
       <r>  -40.5701    1.0000 </r>
       <r>  -40.5656    1.0000 </r>
       <r>  -40.5646    1.0000 </r>
       <r>  -40.5633    1.0000 </r>
       <r>  -40.5369    1.0000 </r>
       <r>  -40.5357    1.0000 </r>
       <r>  -40.5246    1.0000 </r>
       <r>  -40.5227    1.0000 </r>
       <r>  -40.5205    1.0000 </r>
       <r>  -40.5201    1.0000 </r>
       <r>  -40.5127    1.0000 </r>
       <r>  -40.5102    1.0000 </r>
       <r>  -40.5097    1.0000 </r>
       <r>  -40.5088    1.0000 </r>
       <r>  -40.5068    1.0000 </r>
       <r>  -40.5063    1.0000 </r>
       <r>  -40.5019    1.0000 </r>
       <r>  -40.5006    1.0000 </r>
       <r>  -40.4931    1.0000 </r>
       <r>  -40.4853    1.0000 </r>
       <r>  -40.4832    1.0000 </r>
       <r>  -40.4794    1.0000 </r>
       <r>  -40.4793    1.0000 </r>
       <r>  -40.4791    1.0000 </r>
       <r>  -40.4770    1.0000 </r>
       <r>  -40.4748    1.0000 </r>
       <r>  -40.4741    1.0000 </r>
       <r>  -40.4722    1.0000 </r>
       <r>  -40.4715    1.0000 </r>
       <r>  -40.4687    1.0000 </r>
       <r>  -40.4672    1.0000 </r>
       <r>  -40.4627    1.0000 </r>
       <r>  -40.4616    1.0000 </r>
       <r>  -40.4580    1.0000 </r>
       <r>  -40.4497    1.0000 </r>
       <r>  -40.4487    1.0000 </r>
       <r>  -40.4484    1.0000 </r>
       <r>  -40.4448    1.0000 </r>
       <r>  -40.4426    1.0000 </r>
       <r>  -40.4418    1.0000 </r>
       <r>  -40.4406    1.0000 </r>
       <r>  -40.4392    1.0000 </r>
       <r>  -40.4310    1.0000 </r>
       <r>  -40.4273    1.0000 </r>
       <r>  -40.4234    1.0000 </r>
       <r>  -40.4119    1.0000 </r>
       <r>  -40.4017    1.0000 </r>
       <r>    2.7083    1.0000 </r>
       <r>    3.8666    1.0000 </r>
       <r>    4.0660    1.0000 </r>
       <r>    4.2065    1.0000 </r>
       <r>    4.2967    1.0000 </r>
       <r>    4.3262    1.0000 </r>
       <r>    4.4039    1.0000 </r>
       <r>    4.4401    1.0000 </r>
       <r>    4.5386    1.0000 </r>
       <r>    4.5394    1.0000 </r>
       <r>    4.5487    1.0000 </r>
       <r>    4.5548    1.0000 </r>
       <r>    4.5672    1.0000 </r>
       <r>    4.5998    1.0000 </r>
       <r>    4.6180    1.0000 </r>
       <r>    4.6501    1.0000 </r>
       <r>    4.6923    1.0000 </r>
       <r>    4.7110    1.0000 </r>
       <r>    4.7644    1.0000 </r>
       <r>    4.7870    1.0000 </r>
       <r>    4.8556    1.0000 </r>
       <r>    4.9019    1.0000 </r>
       <r>    4.9179    1.0000 </r>
       <r>    5.0247    1.0000 </r>
       <r>    5.0818    1.0000 </r>
       <r>    5.1429    1.0000 </r>
       <r>    5.1480    1.0000 </r>
       <r>    5.1583    1.0000 </r>
       <r>    5.1928    1.0000 </r>
       <r>    5.2255    1.0000 </r>
       <r>    5.2612    1.0000 </r>
       <r>    5.2646    1.0000 </r>
       <r>    5.2865    1.0000 </r>
       <r>    5.3003    1.0000 </r>
       <r>    5.3619    1.0000 </r>
       <r>    5.4210    1.0000 </r>
       <r>    5.4446    1.0000 </r>
       <r>    5.4802    1.0000 </r>
       <r>    5.6938    1.0000 </r>
       <r>    5.7119    1.0000 </r>
       <r>    5.7176    1.0000 </r>
       <r>    5.7647    1.0000 </r>
       <r>    5.8069    1.0000 </r>
       <r>    5.8199    1.0000 </r>
       <r>    5.9503    1.0000 </r>
       <r>    6.0773    1.0000 </r>
       <r>    6.1361    1.0000 </r>
       <r>    6.1847    1.0000 </r>
       <r>    6.1882    1.0000 </r>
       <r>    6.2218    1.0000 </r>
       <r>    6.2930    1.0000 </r>
       <r>    6.3776    1.0000 </r>
       <r>    6.3972    1.0000 </r>
       <r>    6.4053    1.0000 </r>
       <r>    6.4201    1.0000 </r>
       <r>    6.4306    1.0000 </r>
       <r>    6.4475    1.0000 </r>
       <r>    6.4899    1.0000 </r>
       <r>    6.5225    1.0000 </r>
       <r>    6.5365    1.0000 </r>
       <r>    6.5702    1.0000 </r>
       <r>    6.5952    1.0000 </r>
       <r>    6.6095    1.0000 </r>
       <r>    6.6163    1.0000 </r>
       <r>    6.6485    1.0000 </r>
       <r>    6.6546    1.0000 </r>
       <r>    6.6681    1.0000 </r>
       <r>    6.7322    1.0000 </r>
       <r>    6.7454    1.0000 </r>
       <r>    6.7585    1.0000 </r>
       <r>    6.7609    1.0000 </r>
       <r>    6.7858    1.0000 </r>
       <r>    6.7864    1.0000 </r>
       <r>    6.8373    1.0000 </r>
       <r>    6.8964    1.0000 </r>
       <r>    6.9196    1.0000 </r>
       <r>    6.9525    1.0000 </r>
       <r>    6.9648    1.0000 </r>
       <r>    6.9672    1.0000 </r>
       <r>    6.9686    1.0000 </r>
       <r>    6.9785    1.0000 </r>
       <r>    6.9830    1.0000 </r>
       <r>    7.0391    1.0000 </r>
       <r>    7.1657    1.0000 </r>
       <r>    7.3328    1.0000 </r>
       <r>    7.3870    1.0000 </r>
       <r>    7.3945    1.0000 </r>
       <r>    7.4248    1.0000 </r>
       <r>    7.4476    1.0000 </r>
       <r>    7.5059    1.0000 </r>
       <r>    7.7426    1.0000 </r>
       <r>    7.8281    1.0000 </r>
       <r>    7.8561    1.0000 </r>
       <r>    7.8567    1.0000 </r>
       <r>    7.8753    1.0000 </r>
       <r>    7.8923    1.0000 </r>
       <r>    7.8926    1.0000 </r>
       <r>    7.9092    1.0000 </r>
       <r>    7.9572    1.0000 </r>
       <r>    7.9865    1.0000 </r>
       <r>    7.9900    1.0000 </r>
       <r>    8.0367    1.0000 </r>
       <r>    8.0530    1.0000 </r>
       <r>    8.0656    1.0000 </r>
       <r>    8.0865    1.0000 </r>
       <r>    8.0950    1.0000 </r>
       <r>    8.1095    1.0000 </r>
       <r>    8.1215    1.0000 </r>
       <r>    8.1456    1.0000 </r>
       <r>    8.2339    1.0000 </r>
       <r>    8.3076    1.0000 </r>
       <r>    8.3571    1.0000 </r>
       <r>    8.3720    1.0000 </r>
       <r>    8.4391    1.0000 </r>
       <r>    8.4469    1.0000 </r>
       <r>    8.4643    1.0000 </r>
       <r>    8.5374    1.0000 </r>
       <r>    8.5636    1.0000 </r>
       <r>    8.6244    1.0000 </r>
       <r>    8.6913    1.0000 </r>
       <r>    8.7533    1.0000 </r>
       <r>    8.8106    1.0000 </r>
       <r>    8.8316    1.0000 </r>
       <r>    8.8509    1.0000 </r>
       <r>    8.8572    1.0000 </r>
       <r>    8.8834    1.0000 </r>
       <r>    8.9511    0.9997 </r>
       <r>    8.9718    0.9992 </r>
       <r>    9.0216    0.9926 </r>
       <r>    9.0430    0.9836 </r>
       <r>    9.0722    0.9574 </r>
       <r>    9.0991    0.9102 </r>
       <r>    9.1097    0.8832 </r>
       <r>    9.1201    0.8518 </r>
       <r>    9.1378    0.7864 </r>
       <r>    9.1572    0.6986 </r>
       <r>    9.1578    0.6957 </r>
       <r>    9.1621    0.6737 </r>
       <r>    9.1743    0.6096 </r>
       <r>    9.2141    0.3878 </r>
       <r>    9.4807    0.0000 </r>
       <r>    9.5996    0.0000 </r>
       <r>    9.7954    0.0000 </r>
       <r>    9.9172    0.0000 </r>
       <r>   10.0678    0.0000 </r>
       <r>   10.3508    0.0000 </r>
       <r>   10.5041    0.0000 </r>
       <r>   10.6211    0.0000 </r>
       <r>   11.6473    0.0000 </r>
       <r>   11.7217    0.0000 </r>
       <r>   11.9498    0.0000 </r>
       <r>   13.1397    0.0000 </r>
       <r>   13.3099    0.0000 </r>
       <r>   13.7321    0.0000 </r>
       <r>   13.8913    0.0000 </r>
       <r>   14.6342    0.0000 </r>
       <r>   14.8432    0.0000 </r>
       <r>   14.9794    0.0000 </r>
       <r>   14.9938    0.0000 </r>
       <r>   15.2444    0.0000 </r>
       <r>   15.3053    0.0000 </r>
       <r>   15.7972    0.0000 </r>
       <r>   17.0920    0.0000 </r>
       <r>   17.2117    0.0000 </r>
       <r>   17.2253    0.0000 </r>
       <r>   17.2500    0.0000 </r>
       <r>   17.5294    0.0000 </r>
       <r>   17.5712    0.0000 </r>
       <r>   17.6447    0.0000 </r>
       <r>   17.6599    0.0000 </r>
       <r>   17.6970    0.0000 </r>
       <r>   18.0226    0.0000 </r>
       <r>   18.0816    0.0000 </r>
       <r>   18.4557    0.0000 </r>
       <r>   18.6066    0.0000 </r>
       <r>   19.8603    0.0000 </r>
       <r>   20.0793    0.0000 </r>
       <r>   20.1877    0.0000 </r>
      </set>
      <set comment="kpoint 5">
       <r>  -40.7489    1.0000 </r>
       <r>  -40.7489    1.0000 </r>
       <r>  -40.7419    1.0000 </r>
       <r>  -40.7324    1.0000 </r>
       <r>  -40.7319    1.0000 </r>
       <r>  -40.7285    1.0000 </r>
       <r>  -40.7280    1.0000 </r>
       <r>  -40.7197    1.0000 </r>
       <r>  -40.7195    1.0000 </r>
       <r>  -40.7089    1.0000 </r>
       <r>  -40.7075    1.0000 </r>
       <r>  -40.6859    1.0000 </r>
       <r>  -40.6851    1.0000 </r>
       <r>  -40.6848    1.0000 </r>
       <r>  -40.6843    1.0000 </r>
       <r>  -40.6837    1.0000 </r>
       <r>  -40.6830    1.0000 </r>
       <r>  -40.6736    1.0000 </r>
       <r>  -40.6728    1.0000 </r>
       <r>  -40.6682    1.0000 </r>
       <r>  -40.6669    1.0000 </r>
       <r>  -40.6151    1.0000 </r>
       <r>  -40.6069    1.0000 </r>
       <r>  -40.6064    1.0000 </r>
       <r>  -40.5840    1.0000 </r>
       <r>  -40.5836    1.0000 </r>
       <r>  -40.5828    1.0000 </r>
       <r>  -40.5823    1.0000 </r>
       <r>  -40.5702    1.0000 </r>
       <r>  -40.5688    1.0000 </r>
       <r>  -40.5547    1.0000 </r>
       <r>  -40.5523    1.0000 </r>
       <r>  -40.5510    1.0000 </r>
       <r>  -40.5486    1.0000 </r>
       <r>  -40.5473    1.0000 </r>
       <r>  -40.5414    1.0000 </r>
       <r>  -40.5372    1.0000 </r>
       <r>  -40.5367    1.0000 </r>
       <r>  -40.5360    1.0000 </r>
       <r>  -40.5351    1.0000 </r>
       <r>  -40.5340    1.0000 </r>
       <r>  -40.5314    1.0000 </r>
       <r>  -40.5313    1.0000 </r>
       <r>  -40.5301    1.0000 </r>
       <r>  -40.5260    1.0000 </r>
       <r>  -40.5252    1.0000 </r>
       <r>  -40.5168    1.0000 </r>
       <r>  -40.5146    1.0000 </r>
       <r>  -40.4985    1.0000 </r>
       <r>  -40.4982    1.0000 </r>
       <r>  -40.4976    1.0000 </r>
       <r>  -40.4958    1.0000 </r>
       <r>  -40.4953    1.0000 </r>
       <r>  -40.4926    1.0000 </r>
       <r>  -40.4924    1.0000 </r>
       <r>  -40.4905    1.0000 </r>
       <r>  -40.4865    1.0000 </r>
       <r>  -40.4815    1.0000 </r>
       <r>  -40.4790    1.0000 </r>
       <r>  -40.4785    1.0000 </r>
       <r>  -40.4767    1.0000 </r>
       <r>  -40.4765    1.0000 </r>
       <r>  -40.4761    1.0000 </r>
       <r>  -40.4727    1.0000 </r>
       <r>  -40.4724    1.0000 </r>
       <r>  -40.4724    1.0000 </r>
       <r>  -40.4719    1.0000 </r>
       <r>  -40.4717    1.0000 </r>
       <r>  -40.4700    1.0000 </r>
       <r>  -40.4693    1.0000 </r>
       <r>  -40.4681    1.0000 </r>
       <r>  -40.4620    1.0000 </r>
       <r>  -40.4554    1.0000 </r>
       <r>  -40.4411    1.0000 </r>
       <r>  -40.4386    1.0000 </r>
       <r>  -40.4255    1.0000 </r>
       <r>  -40.4252    1.0000 </r>
       <r>  -40.4250    1.0000 </r>
       <r>  -40.4248    1.0000 </r>
       <r>  -40.4228    1.0000 </r>
       <r>  -40.4131    1.0000 </r>
       <r>    3.2304    1.0000 </r>
       <r>    3.7558    1.0000 </r>
       <r>    3.9858    1.0000 </r>
       <r>    4.0503    1.0000 </r>
       <r>    4.3233    1.0000 </r>
       <r>    4.4030    1.0000 </r>
       <r>    4.4044    1.0000 </r>
       <r>    4.4396    1.0000 </r>
       <r>    4.5797    1.0000 </r>
       <r>    4.5805    1.0000 </r>
       <r>    4.5949    1.0000 </r>
       <r>    4.5961    1.0000 </r>
       <r>    4.6447    1.0000 </r>
       <r>    4.6480    1.0000 </r>
       <r>    4.7388    1.0000 </r>
       <r>    4.7572    1.0000 </r>
       <r>    4.7581    1.0000 </r>
       <r>    4.7638    1.0000 </r>
       <r>    4.8594    1.0000 </r>
       <r>    4.8606    1.0000 </r>
       <r>    4.8868    1.0000 </r>
       <r>    4.8884    1.0000 </r>
       <r>    4.9957    1.0000 </r>
       <r>    4.9972    1.0000 </r>
       <r>    5.1222    1.0000 </r>
       <r>    5.1228    1.0000 </r>
       <r>    5.1955    1.0000 </r>
       <r>    5.1971    1.0000 </r>
       <r>    5.2479    1.0000 </r>
       <r>    5.2492    1.0000 </r>
       <r>    5.2949    1.0000 </r>
       <r>    5.2966    1.0000 </r>
       <r>    5.3767    1.0000 </r>
       <r>    5.3782    1.0000 </r>
       <r>    5.3918    1.0000 </r>
       <r>    5.3937    1.0000 </r>
       <r>    5.4914    1.0000 </r>
       <r>    5.4920    1.0000 </r>
       <r>    5.7101    1.0000 </r>
       <r>    5.7115    1.0000 </r>
       <r>    5.7174    1.0000 </r>
       <r>    5.8127    1.0000 </r>
       <r>    5.8484    1.0000 </r>
       <r>    5.8501    1.0000 </r>
       <r>    5.8603    1.0000 </r>
       <r>    5.8935    1.0000 </r>
       <r>    5.8950    1.0000 </r>
       <r>    5.9521    1.0000 </r>
       <r>    5.9810    1.0000 </r>
       <r>    5.9968    1.0000 </r>
       <r>    6.0308    1.0000 </r>
       <r>    6.0325    1.0000 </r>
       <r>    6.0518    1.0000 </r>
       <r>    6.0929    1.0000 </r>
       <r>    6.0943    1.0000 </r>
       <r>    6.1682    1.0000 </r>
       <r>    6.2033    1.0000 </r>
       <r>    6.2056    1.0000 </r>
       <r>    6.4161    1.0000 </r>
       <r>    6.4183    1.0000 </r>
       <r>    6.6396    1.0000 </r>
       <r>    6.6824    1.0000 </r>
       <r>    6.6842    1.0000 </r>
       <r>    6.7103    1.0000 </r>
       <r>    6.7112    1.0000 </r>
       <r>    6.7619    1.0000 </r>
       <r>    6.8063    1.0000 </r>
       <r>    6.8154    1.0000 </r>
       <r>    6.8166    1.0000 </r>
       <r>    6.8633    1.0000 </r>
       <r>    6.8986    1.0000 </r>
       <r>    6.8996    1.0000 </r>
       <r>    6.9087    1.0000 </r>
       <r>    6.9153    1.0000 </r>
       <r>    6.9157    1.0000 </r>
       <r>    6.9654    1.0000 </r>
       <r>    6.9915    1.0000 </r>
       <r>    6.9919    1.0000 </r>
       <r>    7.0267    1.0000 </r>
       <r>    7.0752    1.0000 </r>
       <r>    7.0950    1.0000 </r>
       <r>    7.1752    1.0000 </r>
       <r>    7.1811    1.0000 </r>
       <r>    7.1816    1.0000 </r>
       <r>    7.1916    1.0000 </r>
       <r>    7.1937    1.0000 </r>
       <r>    7.2390    1.0000 </r>
       <r>    7.2440    1.0000 </r>
       <r>    7.2447    1.0000 </r>
       <r>    7.3132    1.0000 </r>
       <r>    7.3179    1.0000 </r>
       <r>    7.4755    1.0000 </r>
       <r>    7.4767    1.0000 </r>
       <r>    7.4780    1.0000 </r>
       <r>    7.5455    1.0000 </r>
       <r>    7.5531    1.0000 </r>
       <r>    7.5669    1.0000 </r>
       <r>    7.5702    1.0000 </r>
       <r>    7.5714    1.0000 </r>
       <r>    7.6567    1.0000 </r>
       <r>    7.8500    1.0000 </r>
       <r>    7.8502    1.0000 </r>
       <r>    8.0285    1.0000 </r>
       <r>    8.0290    1.0000 </r>
       <r>    8.0646    1.0000 </r>
       <r>    8.0655    1.0000 </r>
       <r>    8.1601    1.0000 </r>
       <r>    8.1616    1.0000 </r>
       <r>    8.2222    1.0000 </r>
       <r>    8.2997    1.0000 </r>
       <r>    8.3008    1.0000 </r>
       <r>    8.3524    1.0000 </r>
       <r>    8.3727    1.0000 </r>
       <r>    8.3743    1.0000 </r>
       <r>    8.4528    1.0000 </r>
       <r>    8.4544    1.0000 </r>
       <r>    8.4615    1.0000 </r>
       <r>    8.4632    1.0000 </r>
       <r>    8.6279    1.0000 </r>
       <r>    8.7122    1.0000 </r>
       <r>    8.7128    1.0000 </r>
       <r>    8.7619    1.0000 </r>
       <r>    8.7622    1.0000 </r>
       <r>    9.0034    0.9965 </r>
       <r>    9.0047    0.9963 </r>
       <r>    9.1034    0.8998 </r>
       <r>    9.1233    0.8413 </r>
       <r>    9.1545    0.7119 </r>
       <r>    9.1548    0.7102 </r>
       <r>    9.1586    0.6916 </r>
       <r>    9.1590    0.6894 </r>
       <r>    9.1939    0.5005 </r>
       <r>    9.2099    0.4110 </r>
       <r>    9.2320    0.2953 </r>
       <r>    9.3124    0.0470 </r>
       <r>    9.4293    0.0004 </r>
       <r>    9.4298    0.0004 </r>
       <r>    9.4311    0.0004 </r>
       <r>    9.4312    0.0004 </r>
       <r>    9.4420    0.0002 </r>
       <r>    9.4811    0.0000 </r>
       <r>   10.8582    0.0000 </r>
       <r>   10.8596    0.0000 </r>
       <r>   11.2957    0.0000 </r>
       <r>   11.5990    0.0000 </r>
       <r>   11.6005    0.0000 </r>
       <r>   11.6795    0.0000 </r>
       <r>   11.6816    0.0000 </r>
       <r>   11.7312    0.0000 </r>
       <r>   11.8443    0.0000 </r>
       <r>   11.8460    0.0000 </r>
       <r>   12.5834    0.0000 </r>
       <r>   12.6044    0.0000 </r>
       <r>   12.6335    0.0000 </r>
       <r>   12.6348    0.0000 </r>
       <r>   12.8593    0.0000 </r>
       <r>   12.9364    0.0000 </r>
       <r>   12.9385    0.0000 </r>
       <r>   15.0796    0.0000 </r>
       <r>   15.0807    0.0000 </r>
       <r>   16.1336    0.0000 </r>
       <r>   16.1354    0.0000 </r>
       <r>   16.3560    0.0000 </r>
       <r>   16.7258    0.0000 </r>
       <r>   16.8319    0.0000 </r>
       <r>   16.8341    0.0000 </r>
       <r>   17.4517    0.0000 </r>
       <r>   17.4536    0.0000 </r>
       <r>   17.6156    0.0000 </r>
       <r>   18.3395    0.0000 </r>
       <r>   19.0121    0.0000 </r>
       <r>   19.0122    0.0000 </r>
       <r>   19.5309    0.0000 </r>
       <r>   19.5313    0.0000 </r>
       <r>   19.8148    0.0000 </r>
       <r>   19.8636    0.0000 </r>
       <r>   19.8641    0.0000 </r>
       <r>   20.2030    0.0000 </r>
      </set>
      <set comment="kpoint 6">
       <r>  -40.7575    1.0000 </r>
       <r>  -40.7405    1.0000 </r>
       <r>  -40.7380    1.0000 </r>
       <r>  -40.7308    1.0000 </r>
       <r>  -40.7233    1.0000 </r>
       <r>  -40.7181    1.0000 </r>
       <r>  -40.7142    1.0000 </r>
       <r>  -40.7138    1.0000 </r>
       <r>  -40.7084    1.0000 </r>
       <r>  -40.7052    1.0000 </r>
       <r>  -40.7008    1.0000 </r>
       <r>  -40.6926    1.0000 </r>
       <r>  -40.6903    1.0000 </r>
       <r>  -40.6897    1.0000 </r>
       <r>  -40.6895    1.0000 </r>
       <r>  -40.6856    1.0000 </r>
       <r>  -40.6787    1.0000 </r>
       <r>  -40.6722    1.0000 </r>
       <r>  -40.6681    1.0000 </r>
       <r>  -40.6635    1.0000 </r>
       <r>  -40.6452    1.0000 </r>
       <r>  -40.6413    1.0000 </r>
       <r>  -40.6295    1.0000 </r>
       <r>  -40.6205    1.0000 </r>
       <r>  -40.6063    1.0000 </r>
       <r>  -40.5986    1.0000 </r>
       <r>  -40.5835    1.0000 </r>
       <r>  -40.5798    1.0000 </r>
       <r>  -40.5773    1.0000 </r>
       <r>  -40.5766    1.0000 </r>
       <r>  -40.5593    1.0000 </r>
       <r>  -40.5571    1.0000 </r>
       <r>  -40.5549    1.0000 </r>
       <r>  -40.5506    1.0000 </r>
       <r>  -40.5485    1.0000 </r>
       <r>  -40.5480    1.0000 </r>
       <r>  -40.5473    1.0000 </r>
       <r>  -40.5411    1.0000 </r>
       <r>  -40.5381    1.0000 </r>
       <r>  -40.5369    1.0000 </r>
       <r>  -40.5338    1.0000 </r>
       <r>  -40.5295    1.0000 </r>
       <r>  -40.5287    1.0000 </r>
       <r>  -40.5278    1.0000 </r>
       <r>  -40.5246    1.0000 </r>
       <r>  -40.5224    1.0000 </r>
       <r>  -40.5144    1.0000 </r>
       <r>  -40.5107    1.0000 </r>
       <r>  -40.5063    1.0000 </r>
       <r>  -40.5016    1.0000 </r>
       <r>  -40.5007    1.0000 </r>
       <r>  -40.4979    1.0000 </r>
       <r>  -40.4971    1.0000 </r>
       <r>  -40.4956    1.0000 </r>
       <r>  -40.4897    1.0000 </r>
       <r>  -40.4883    1.0000 </r>
       <r>  -40.4855    1.0000 </r>
[...]
       <r>    8.4502    1.0000 </r>
       <r>    8.5261    1.0000 </r>
       <r>    8.5787    1.0000 </r>
       <r>    8.6023    1.0000 </r>
       <r>    8.6418    1.0000 </r>
       <r>    8.7214    1.0000 </r>
       <r>    8.7286    1.0000 </r>
       <r>    8.7296    1.0000 </r>
       <r>    8.7603    1.0000 </r>
       <r>    8.7902    1.0000 </r>
       <r>    8.8048    1.0000 </r>
       <r>    8.8242    1.0000 </r>
       <r>    8.8650    1.0000 </r>
       <r>    8.8816    1.0000 </r>
       <r>    8.9259    0.9999 </r>
       <r>    8.9645    0.9994 </r>
       <r>    8.9727    0.9991 </r>
       <r>    9.0288    0.9903 </r>
       <r>    9.0755    0.9531 </r>
       <r>    9.1019    0.9037 </r>
       <r>    9.1027    0.9015 </r>
       <r>    9.1328    0.8066 </r>
       <r>    9.1343    0.8007 </r>
       <r>    9.1531    0.7184 </r>
       <r>    9.1877    0.5352 </r>
       <r>    9.1935    0.5029 </r>
       <r>    9.2512    0.2093 </r>
       <r>    9.3826    0.0038 </r>
       <r>    9.4179    0.0008 </r>
       <r>    9.6187    0.0000 </r>
       <r>    9.6514    0.0000 </r>
       <r>   10.0256    0.0000 </r>
       <r>   10.1121    0.0000 </r>
       <r>   10.2458    0.0000 </r>
       <r>   10.8490    0.0000 </r>
       <r>   11.0981    0.0000 </r>
       <r>   11.4870    0.0000 </r>
       <r>   12.4187    0.0000 </r>
       <r>   12.7042    0.0000 </r>
       <r>   13.4322    0.0000 </r>
       <r>   14.1196    0.0000 </r>
       <r>   14.4795    0.0000 </r>
       <r>   14.5696    0.0000 </r>
       <r>   14.6940    0.0000 </r>
       <r>   15.0141    0.0000 </r>
       <r>   15.2309    0.0000 </r>
       <r>   15.2443    0.0000 </r>
       <r>   16.2790    0.0000 </r>
       <r>   16.3966    0.0000 </r>
       <r>   16.5149    0.0000 </r>
       <r>   16.6049    0.0000 </r>
       <r>   16.9023    0.0000 </r>
       <r>   17.1164    0.0000 </r>
       <r>   17.2693    0.0000 </r>
       <r>   17.3057    0.0000 </r>
       <r>   17.3119    0.0000 </r>
       <r>   17.9335    0.0000 </r>
       <r>   18.1529    0.0000 </r>
       <r>   18.2698    0.0000 </r>
       <r>   18.4503    0.0000 </r>
       <r>   18.4854    0.0000 </r>
       <r>   19.0467    0.0000 </r>
       <r>   19.1855    0.0000 </r>
       <r>   19.8568    0.0000 </r>
       <r>   20.0857    0.0000 </r>
      </set>
     </set>
    </set>
   </array>
  </eigenvalues>
  <separator name="orbital magnetization" >
   <v name="MAGDIPOLOUT">      0.00000000      0.00000000      0.00000000</v>
  </separator>
  <dos>
   <i name="efermi">      9.19397915 </i>
   <total>
    <array>
     <dimension dim="1">gridpoints</dimension>
     <dimension dim="2">spin</dimension>
     <field>energy</field>
     <field>total</field>
     <field>integrated</field>
     <set>
      <set comment="spin 1">
       <r>   -43.8210     0.0000     0.0000 </r>
       <r>   -43.5973     0.0000     0.0000 </r>
       <r>   -43.3735     0.0000     0.0000 </r>
       <r>   -43.1497     0.0000     0.0000 </r>
       <r>   -42.9259     0.0000     0.0000 </r>
       <r>   -42.7022     0.0000     0.0000 </r>
       <r>   -42.4784     0.0000     0.0000 </r>
       <r>   -42.2546     0.0000     0.0000 </r>
       <r>   -42.0308     0.0000     0.0000 </r>
       <r>   -41.8071     0.0000     0.0000 </r>
       <r>   -41.5833     0.0000     0.0000 </r>
       <r>   -41.3595     0.0000     0.0000 </r>
       <r>   -41.1357     0.0000     0.0000 </r>
       <r>   -40.9120     0.4596     0.1028 </r>
       <r>   -40.6882   118.9504    26.7209 </r>
       <r>   -40.4644   429.8993   122.9213 </r>
       <r>   -40.2407   174.1594   161.8937 </r>
       <r>   -40.0169     0.4749   162.0000 </r>
       <r>   -39.7931     0.0000   162.0000 </r>
       <r>   -39.5693     0.0000   162.0000 </r>
       <r>   -39.3456     0.0000   162.0000 </r>
       <r>   -39.1218     0.0000   162.0000 </r>
       <r>   -38.8980     0.0000   162.0000 </r>
       <r>   -38.6742     0.0000   162.0000 </r>
       <r>   -38.4505     0.0000   162.0000 </r>
       <r>   -38.2267     0.0000   162.0000 </r>
       <r>   -38.0029     0.0000   162.0000 </r>
       <r>   -37.7791     0.0000   162.0000 </r>
       <r>   -37.5554     0.0000   162.0000 </r>
       <r>   -37.3316     0.0000   162.0000 </r>
       <r>   -37.1078     0.0000   162.0000 </r>
       <r>   -36.8840     0.0000   162.0000 </r>
       <r>   -36.6603     0.0000   162.0000 </r>
       <r>   -36.4365     0.0000   162.0000 </r>
       <r>   -36.2127     0.0000   162.0000 </r>
       <r>   -35.9889     0.0000   162.0000 </r>
       <r>   -35.7652     0.0000   162.0000 </r>
       <r>   -35.5414     0.0000   162.0000 </r>
       <r>   -35.3176     0.0000   162.0000 </r>
       <r>   -35.0938     0.0000   162.0000 </r>
       <r>   -34.8701     0.0000   162.0000 </r>
       <r>   -34.6463     0.0000   162.0000 </r>
       <r>   -34.4225     0.0000   162.0000 </r>
       <r>   -34.1987     0.0000   162.0000 </r>
       <r>   -33.9750     0.0000   162.0000 </r>
       <r>   -33.7512     0.0000   162.0000 </r>
       <r>   -33.5274     0.0000   162.0000 </r>
       <r>   -33.3036     0.0000   162.0000 </r>
       <r>   -33.0799     0.0000   162.0000 </r>
       <r>   -32.8561     0.0000   162.0000 </r>
       <r>   -32.6323     0.0000   162.0000 </r>
       <r>   -32.4086     0.0000   162.0000 </r>
       <r>   -32.1848     0.0000   162.0000 </r>
       <r>   -31.9610     0.0000   162.0000 </r>
       <r>   -31.7372     0.0000   162.0000 </r>
       <r>   -31.5135     0.0000   162.0000 </r>
       <r>   -31.2897     0.0000   162.0000 </r>
       <r>   -31.0659     0.0000   162.0000 </r>
       <r>   -30.8421     0.0000   162.0000 </r>
       <r>   -30.6184     0.0000   162.0000 </r>
       <r>   -30.3946     0.0000   162.0000 </r>
       <r>   -30.1708     0.0000   162.0000 </r>
       <r>   -29.9470     0.0000   162.0000 </r>
       <r>   -29.7233     0.0000   162.0000 </r>
       <r>   -29.4995     0.0000   162.0000 </r>
       <r>   -29.2757     0.0000   162.0000 </r>
       <r>   -29.0519     0.0000   162.0000 </r>
       <r>   -28.8282     0.0000   162.0000 </r>
       <r>   -28.6044     0.0000   162.0000 </r>
       <r>   -28.3806     0.0000   162.0000 </r>
       <r>   -28.1568     0.0000   162.0000 </r>
       <r>   -27.9331     0.0000   162.0000 </r>
       <r>   -27.7093     0.0000   162.0000 </r>
       <r>   -27.4855     0.0000   162.0000 </r>
       <r>   -27.2617     0.0000   162.0000 </r>
       <r>   -27.0380     0.0000   162.0000 </r>
       <r>   -26.8142     0.0000   162.0000 </r>
       <r>   -26.5904     0.0000   162.0000 </r>
       <r>   -26.3666     0.0000   162.0000 </r>
       <r>   -26.1429     0.0000   162.0000 </r>
       <r>   -25.9191     0.0000   162.0000 </r>
       <r>   -25.6953     0.0000   162.0000 </r>
       <r>   -25.4715     0.0000   162.0000 </r>
       <r>   -25.2478     0.0000   162.0000 </r>
       <r>   -25.0240     0.0000   162.0000 </r>
       <r>   -24.8002     0.0000   162.0000 </r>
       <r>   -24.5765     0.0000   162.0000 </r>
       <r>   -24.3527     0.0000   162.0000 </r>
       <r>   -24.1289     0.0000   162.0000 </r>
       <r>   -23.9051     0.0000   162.0000 </r>
       <r>   -23.6814     0.0000   162.0000 </r>
       <r>   -23.4576     0.0000   162.0000 </r>
       <r>   -23.2338     0.0000   162.0000 </r>
       <r>   -23.0100     0.0000   162.0000 </r>
       <r>   -22.7863     0.0000   162.0000 </r>
       <r>   -22.5625     0.0000   162.0000 </r>
       <r>   -22.3387     0.0000   162.0000 </r>
       <r>   -22.1149     0.0000   162.0000 </r>
       <r>   -21.8912     0.0000   162.0000 </r>
       <r>   -21.6674     0.0000   162.0000 </r>
       <r>   -21.4436     0.0000   162.0000 </r>
       <r>   -21.2198     0.0000   162.0000 </r>
       <r>   -20.9961     0.0000   162.0000 </r>
       <r>   -20.7723     0.0000   162.0000 </r>
       <r>   -20.5485     0.0000   162.0000 </r>
       <r>   -20.3247     0.0000   162.0000 </r>
       <r>   -20.1010     0.0000   162.0000 </r>
       <r>   -19.8772     0.0000   162.0000 </r>
       <r>   -19.6534     0.0000   162.0000 </r>
       <r>   -19.4296     0.0000   162.0000 </r>
       <r>   -19.2059     0.0000   162.0000 </r>
       <r>   -18.9821     0.0000   162.0000 </r>
       <r>   -18.7583     0.0000   162.0000 </r>
       <r>   -18.5345     0.0000   162.0000 </r>
       <r>   -18.3108     0.0000   162.0000 </r>
       <r>   -18.0870     0.0000   162.0000 </r>
       <r>   -17.8632     0.0000   162.0000 </r>
       <r>   -17.6394     0.0000   162.0000 </r>
       <r>   -17.4157     0.0000   162.0000 </r>
       <r>   -17.1919     0.0000   162.0000 </r>
       <r>   -16.9681     0.0000   162.0000 </r>
       <r>   -16.7443     0.0000   162.0000 </r>
       <r>   -16.5206     0.0000   162.0000 </r>
       <r>   -16.2968     0.0000   162.0000 </r>
       <r>   -16.0730     0.0000   162.0000 </r>
       <r>   -15.8493     0.0000   162.0000 </r>
       <r>   -15.6255     0.0000   162.0000 </r>
       <r>   -15.4017     0.0000   162.0000 </r>
       <r>   -15.1779     0.0000   162.0000 </r>
       <r>   -14.9542     0.0000   162.0000 </r>
       <r>   -14.7304     0.0000   162.0000 </r>
       <r>   -14.5066     0.0000   162.0000 </r>
       <r>   -14.2828     0.0000   162.0000 </r>
       <r>   -14.0591     0.0000   162.0000 </r>
       <r>   -13.8353     0.0000   162.0000 </r>
       <r>   -13.6115     0.0000   162.0000 </r>
       <r>   -13.3877     0.0000   162.0000 </r>
       <r>   -13.1640     0.0000   162.0000 </r>
       <r>   -12.9402     0.0000   162.0000 </r>
       <r>   -12.7164     0.0000   162.0000 </r>
       <r>   -12.4926     0.0000   162.0000 </r>
       <r>   -12.2689     0.0000   162.0000 </r>
       <r>   -12.0451     0.0000   162.0000 </r>
       <r>   -11.8213     0.0000   162.0000 </r>
       <r>   -11.5975     0.0000   162.0000 </r>
       <r>   -11.3738     0.0000   162.0000 </r>
       <r>   -11.1500     0.0000   162.0000 </r>
       <r>   -10.9262     0.0000   162.0000 </r>
       <r>   -10.7024     0.0000   162.0000 </r>
       <r>   -10.4787     0.0000   162.0000 </r>
       <r>   -10.2549     0.0000   162.0000 </r>
       <r>   -10.0311     0.0000   162.0000 </r>
       <r>    -9.8073     0.0000   162.0000 </r>
       <r>    -9.5836     0.0000   162.0000 </r>
       <r>    -9.3598     0.0000   162.0000 </r>
       <r>    -9.1360     0.0000   162.0000 </r>
       <r>    -8.9122     0.0000   162.0000 </r>
       <r>    -8.6885     0.0000   162.0000 </r>
       <r>    -8.4647     0.0000   162.0000 </r>
       <r>    -8.2409     0.0000   162.0000 </r>
       <r>    -8.0172     0.0000   162.0000 </r>
       <r>    -7.7934     0.0000   162.0000 </r>
       <r>    -7.5696     0.0000   162.0000 </r>
       <r>    -7.3458     0.0000   162.0000 </r>
       <r>    -7.1221     0.0000   162.0000 </r>
       <r>    -6.8983     0.0000   162.0000 </r>
       <r>    -6.6745     0.0000   162.0000 </r>
       <r>    -6.4507     0.0000   162.0000 </r>
       <r>    -6.2270     0.0000   162.0000 </r>
       <r>    -6.0032     0.0000   162.0000 </r>
       <r>    -5.7794     0.0000   162.0000 </r>
       <r>    -5.5556     0.0000   162.0000 </r>
       <r>    -5.3319     0.0000   162.0000 </r>
       <r>    -5.1081     0.0000   162.0000 </r>
       <r>    -4.8843     0.0000   162.0000 </r>
       <r>    -4.6605     0.0000   162.0000 </r>
       <r>    -4.4368     0.0000   162.0000 </r>
       <r>    -4.2130     0.0000   162.0000 </r>
       <r>    -3.9892     0.0000   162.0000 </r>
       <r>    -3.7654     0.0000   162.0000 </r>
       <r>    -3.5417     0.0000   162.0000 </r>
       <r>    -3.3179     0.0000   162.0000 </r>
       <r>    -3.0941     0.0000   162.0000 </r>
       <r>    -2.8703     0.0000   162.0000 </r>
       <r>    -2.6466     0.0000   162.0000 </r>
       <r>    -2.4228     0.0000   162.0000 </r>
       <r>    -2.1990     0.0000   162.0000 </r>
       <r>    -1.9752     0.0000   162.0000 </r>
       <r>    -1.7515     0.0000   162.0000 </r>
       <r>    -1.5277     0.0000   162.0000 </r>
       <r>    -1.3039     0.0000   162.0000 </r>
       <r>    -1.0801     0.0000   162.0000 </r>
       <r>    -0.8564     0.0000   162.0000 </r>
       <r>    -0.6326     0.0000   162.0000 </r>
       <r>    -0.4088     0.0000   162.0000 </r>
       <r>    -0.1851     0.0000   162.0000 </r>
       <r>     0.0387     0.0000   162.0000 </r>
       <r>     0.2625     0.0000   162.0000 </r>
       <r>     0.4863     0.0000   162.0000 </r>
       <r>     0.7100     0.0000   162.0000 </r>
       <r>     0.9338     0.0000   162.0000 </r>
       <r>     1.1576     0.0000   162.0000 </r>
       <r>     1.3814     0.0000   162.0000 </r>
       <r>     1.6051     0.0000   162.0000 </r>
       <r>     1.8289     0.0000   162.0000 </r>
       <r>     2.0527     0.0000   162.0000 </r>
       <r>     2.2765     0.1045   162.0234 </r>
       <r>     2.5002     0.8028   162.2030 </r>
       <r>     2.7240     1.2039   162.4725 </r>
       <r>     2.9478     1.8878   162.8949 </r>
       <r>     3.1716     2.2504   163.3985 </r>
       <r>     3.3953     2.4554   163.9479 </r>
       <r>     3.6191     3.2650   164.6786 </r>
       <r>     3.8429     4.0751   165.5905 </r>
       <r>     4.0667     6.6081   167.0692 </r>
       <r>     4.2904    21.5220   171.8853 </r>
       <r>     4.5142    39.6604   180.7602 </r>
       <r>     4.7380    58.3819   193.8246 </r>
       <r>     4.9618    62.7851   207.8743 </r>
       <r>     5.1855    53.9125   219.9385 </r>
       <r>     5.4093    42.0228   229.3422 </r>
       <r>     5.6331    42.5969   238.8743 </r>
       <r>     5.8569    44.6208   248.8593 </r>
       <r>     6.0806    46.3886   259.2398 </r>
       <r>     6.3044    50.0760   270.4456 </r>
       <r>     6.5282    52.7358   282.2465 </r>
       <r>     6.7520    76.1001   299.2757 </r>
       <r>     6.9757    77.5876   316.6378 </r>
       <r>     7.1995    48.4447   327.4785 </r>
       <r>     7.4233    42.4043   336.9675 </r>
       <r>     7.6471    51.5010   348.4921 </r>
       <r>     7.8708    52.4724   360.2341 </r>
       <r>     8.0946    56.4664   372.8698 </r>
       <r>     8.3184    47.5867   383.5185 </r>
       <r>     8.5421    45.6989   393.7447 </r>
       <r>     8.7659    44.3576   403.6708 </r>
       <r>     8.9897    57.2749   416.4875 </r>
       <r>     9.2135    74.8412   433.2350 </r>
       <r>     9.4372    42.2697   442.6939 </r>
       <r>     9.6610    11.9578   445.3697 </r>
       <r>     9.8848     7.0921   446.9568 </r>
       <r>    10.1086     5.3549   448.1551 </r>
       <r>    10.3323     5.9118   449.4780 </r>
       <r>    10.5561     7.1289   451.0732 </r>
       <r>    10.7799     6.9324   452.6245 </r>
       <r>    11.0037     6.9578   454.1815 </r>
       <r>    11.2274     6.2728   455.5852 </r>
       <r>    11.4512     7.3269   457.2247 </r>
       <r>    11.6750     6.6991   458.7238 </r>
       <r>    11.8988     6.0192   460.0708 </r>
       <r>    12.1225     8.4688   461.9659 </r>
       <r>    12.3463     6.3460   463.3859 </r>
       <r>    12.5701     7.2342   465.0048 </r>
       <r>    12.7939     6.7235   466.5093 </r>
       <r>    13.0176     6.5385   467.9725 </r>
       <r>    13.2414     4.2607   468.9259 </r>
       <r>    13.4652     8.6636   470.8646 </r>
       <r>    13.6890     6.3016   472.2747 </r>
       <r>    13.9127     7.5180   473.9571 </r>
       <r>    14.1365     6.6703   475.4497 </r>
       <r>    14.3603     4.6037   476.4799 </r>
       <r>    14.5841     3.9503   477.3639 </r>
       <r>    14.8078     6.6443   478.8507 </r>
       <r>    15.0316     3.9984   479.7454 </r>
       <r>    15.2554     5.2396   480.9179 </r>
       <r>    15.4792     3.3924   481.6771 </r>
       <r>    15.7029     4.0542   482.5843 </r>
       <r>    15.9267     2.9603   483.2467 </r>
       <r>    16.1505     4.0095   484.1439 </r>
       <r>    16.3742     7.5461   485.8326 </r>
       <r>    16.5980    11.1071   488.3181 </r>
       <r>    16.8218     9.4248   490.4271 </r>
       <r>    17.0456     9.4906   492.5509 </r>
       <r>    17.2693     9.8079   494.7456 </r>
       <r>    17.4931     8.1293   496.5647 </r>
       <r>    17.7169     9.9259   498.7859 </r>
       <r>    17.9407     4.1755   499.7202 </r>
       <r>    18.1644     7.2518   501.3430 </r>
       <r>    18.3882     6.9322   502.8943 </r>
       <r>    18.6120     7.5516   504.5841 </r>
       <r>    18.8358     7.6382   506.2934 </r>
       <r>    19.0595     7.0101   507.8620 </r>
       <r>    19.2833     8.8297   509.8379 </r>
       <r>    19.5071     7.5208   511.5209 </r>
       <r>    19.7309     8.4390   513.4093 </r>
       <r>    19.9546    10.9090   515.8505 </r>
       <r>    20.1784     6.9381   517.4030 </r>
       <r>    20.4022     2.6476   517.9955 </r>
       <r>    20.6260     0.0201   518.0000 </r>
       <r>    20.8497     0.0000   518.0000 </r>
       <r>    21.0735     0.0000   518.0000 </r>
       <r>    21.2973     0.0000   518.0000 </r>
       <r>    21.5211     0.0000   518.0000 </r>
       <r>    21.7448     0.0000   518.0000 </r>
       <r>    21.9686     0.0000   518.0000 </r>
       <r>    22.1924     0.0000   518.0000 </r>
       <r>    22.4162     0.0000   518.0000 </r>
       <r>    22.6399     0.0000   518.0000 </r>
       <r>    22.8637     0.0000   518.0000 </r>
       <r>    23.0875     0.0000   518.0000 </r>
       <r>    23.3113     0.0000   518.0000 </r>
      </set>
     </set>
    </array>
   </total>
  </dos>
 </calculation>
 <structure name="finalpos" >
  <crystal>
   <varray name="basis" >
    <v>       0.00000000       5.89050000       5.89050000 </v>
    <v>       5.89050000       0.00000000       5.89050000 </v>
    <v>       5.89050000       5.89050000       0.00000000 </v>
   </varray>
   <i name="volume">    408.77702314 </i>
   <varray name="rec_basis" >
    <v>      -0.08488244       0.08488244       0.08488244 </v>
    <v>       0.08488244      -0.08488244       0.08488244 </v>
    <v>       0.08488244       0.08488244      -0.08488244 </v>
   </varray>
  </crystal>
  <varray name="positions" >
   <v>       0.00120042       0.00000000       0.00000000 </v>
   <v>       0.33333333       0.00000000       0.00000000 </v>
   <v>       0.66666667       0.00000000       0.00000000 </v>
   <v>       0.00000000       0.33333333       0.00000000 </v>
   <v>       0.33333333       0.33333333       0.00000000 </v>
   <v>       0.66666667       0.33333333       0.00000000 </v>
   <v>       0.00000000       0.66666667       0.00000000 </v>
   <v>       0.33333333       0.66666667       0.00000000 </v>
   <v>       0.66666667       0.66666667       0.00000000 </v>
   <v>       0.00000000       0.00000000       0.33333333 </v>
   <v>       0.33333333       0.00000000       0.33333333 </v>
   <v>       0.66666667       0.00000000       0.33333333 </v>
   <v>       0.00000000       0.33333333       0.33333333 </v>
   <v>       0.33333333       0.33333333       0.33333333 </v>
   <v>       0.66666667       0.33333333       0.33333333 </v>
   <v>       0.00000000       0.66666667       0.33333333 </v>
   <v>       0.33333333       0.66666667       0.33333333 </v>
   <v>       0.66666667       0.66666667       0.33333333 </v>
   <v>       0.00000000       0.00000000       0.66666667 </v>
   <v>       0.33333333       0.00000000       0.66666667 </v>
   <v>       0.66666667       0.00000000       0.66666667 </v>
   <v>       0.00000000       0.33333333       0.66666667 </v>
   <v>       0.33333333       0.33333333       0.66666667 </v>
   <v>       0.66666667       0.33333333       0.66666667 </v>
   <v>       0.00000000       0.66666667       0.66666667 </v>
   <v>       0.33333333       0.66666667       0.66666667 </v>
   <v>       0.66666667       0.66666667       0.66666667 </v>
  </varray>
 </structure>
</modeling>
