<?xml version="1.0" encoding="ISO-8859-1"?>
<modeling>
 <generator>
  <i name="program" type="string">vasp </i>
  <i name="version" type="string">5.3.3  </i>
  <i name="subversion" type="string">18Dez12 (build Jun 21 2016 14:15:03) complex                          serial </i>
  <i name="platform" type="string">LinuxIFC </i>
  <i name="date" type="string">2017 10 17 </i>
  <i name="time" type="string">11:51:27 </i>
 </generator>
 <incar>
  <i type="string" name="PREC">a</i>
  <i type="int" name="IALGO">    38</i>
  <i type="logical" name="ADDGRID"> T  </i>
  <i type="int" name="IBRION">    -1</i>
  <i name="EDIFF">      0.00000001</i>
  <i type="int" name="ISYM">     0</i>
  <i name="ENCUT">    500.00000000</i>
  <i type="logical" name="LREAL"> F  </i>
  <i type="int" name="ISMEAR">     0</i>
  <i name="SIGMA">      0.10000000</i>
  <i type="logical" name="LWAVE"> F  </i>
 </incar>
 <kpoints>
  <varray name="kpointlist" >
   <v>       0.25000000       0.12500000       0.91666667 </v>
   <v>       0.50000000       0.12500000       0.75000000 </v>
   <v>       0.75000000       0.12500000       0.58333333 </v>
   <v>       0.00000000       0.12500000       0.41666667 </v>
   <v>       0.25000000       0.12500000       0.25000000 </v>
   <v>       0.50000000       0.12500000       0.08333333 </v>
   <v>       0.75000000       0.12500000       0.91666667 </v>
   <v>       0.00000000       0.12500000       0.75000000 </v>
   <v>       0.25000000       0.12500000       0.58333333 </v>
   <v>       0.50000000       0.12500000       0.41666667 </v>
   <v>       0.75000000       0.12500000       0.25000000 </v>
   <v>       0.00000000       0.12500000       0.08333333 </v>
   <v>       0.25000000       0.37500000       0.75000000 </v>
   <v>       0.50000000       0.37500000       0.58333333 </v>
   <v>       0.75000000       0.37500000       0.41666667 </v>
   <v>       0.00000000       0.37500000       0.25000000 </v>
   <v>       0.25000000       0.37500000       0.08333333 </v>
   <v>       0.50000000       0.37500000       0.91666667 </v>
   <v>       0.75000000       0.37500000       0.75000000 </v>
   <v>       0.00000000       0.37500000       0.58333333 </v>
   <v>       0.25000000       0.37500000       0.41666667 </v>
   <v>       0.50000000       0.37500000       0.25000000 </v>
   <v>       0.75000000       0.37500000       0.08333333 </v>
   <v>       0.00000000       0.37500000       0.91666667 </v>
  </varray>
  <varray name="weights" >
   <v>       0.04166667 </v>
   <v>       0.04166667 </v>
   <v>       0.04166667 </v>
   <v>       0.04166667 </v>
   <v>       0.04166667 </v>
   <v>       0.04166667 </v>
   <v>       0.04166667 </v>
   <v>       0.04166667 </v>
   <v>       0.04166667 </v>
   <v>       0.04166667 </v>
   <v>       0.04166667 </v>
   <v>       0.04166667 </v>
   <v>       0.04166667 </v>
   <v>       0.04166667 </v>
   <v>       0.04166667 </v>
   <v>       0.04166667 </v>
   <v>       0.04166667 </v>
   <v>       0.04166667 </v>
   <v>       0.04166667 </v>
   <v>       0.04166667 </v>
   <v>       0.04166667 </v>
   <v>       0.04166667 </v>
   <v>       0.04166667 </v>
   <v>       0.04166667 </v>
  </varray>
 </kpoints>
 <parameters>
  <separator name="general" >
   <i type="string" name="SYSTEM">unknown system</i>
   <i type="logical" name="LCOMPAT"> F  </i>
  </separator>
  <separator name="electronic" >
   <i type="string" name="PREC">a</i>
   <i name="ENMAX">    500.00000000</i>
   <i name="ENAUG">    473.06700000</i>
   <i name="EDIFF">      0.00000001</i>
   <i type="int" name="IALGO">    38</i>
   <i type="int" name="IWAVPR">     0</i>
   <i type="int" name="NBANDS">   307</i>
   <i name="NELECT">    512.00000000</i>
   <i type="int" name="TURBO">     0</i>
   <i type="int" name="IRESTART">     0</i>
   <i type="int" name="NREBOOT">     0</i>
   <i type="int" name="NMIN">     0</i>
   <i name="EREF">      0.00000000</i>
   <separator name="electronic smearing" >
    <i type="int" name="ISMEAR">     0</i>
    <i name="SIGMA">      0.10000000</i>
    <i name="KSPACING">      0.50000000</i>
    <i type="logical" name="KGAMMA"> T  </i>
   </separator>
   <separator name="electronic projectors" >
    <i type="logical" name="LREAL"> F  </i>
    <v name="ROPT">      0.00000000</v>
    <i type="int" name="LMAXPAW">  -100</i>
    <i type="int" name="LMAXMIX">     2</i>
    <i type="logical" name="NLSPLINE"> F  </i>
   </separator>
   <separator name="electronic startup" >
    <i type="int" name="ISTART">     0</i>
    <i type="int" name="ICHARG">     2</i>
    <i type="int" name="INIWAV">     1</i>
   </separator>
   <separator name="electronic spin" >
    <i type="int" name="ISPIN">     1</i>
    <i type="logical" name="LNONCOLLINEAR"> F  </i>
    <v name="MAGMOM">      1.00000000      1.00000000      1.00000000      1.00000000      1.00000000      1.00000000      1.00000000      1.00000000      1.00000000      1.00000000      1.00000000      1.00000000      1.00000000      1.00000000      1.00000000      1.00000000      1.00000000      1.00000000      1.00000000      1.00000000
      1.00000000      1.00000000      1.00000000      1.00000000      1.00000000      1.00000000      1.00000000      1.00000000      1.00000000      1.00000000      1.00000000      1.00000000</v>
    <i name="NUPDOWN">     -1.00000000</i>
    <i type="logical" name="LSORBIT"> F  </i>
    <v name="SAXIS">      0.00000000      0.00000000      1.00000000</v>
    <i type="logical" name="LSPIRAL"> F  </i>
    <v name="QSPIRAL">      0.00000000      0.00000000      0.00000000</v>
    <i type="logical" name="LZEROZ"> F  </i>
   </separator>
   <separator name="electronic exchange-correlation" >
    <i type="logical" name="LASPH"> F  </i>
    <i type="logical" name="LMETAGGA"> F  </i>
   </separator>
   <separator name="electronic convergence" >
    <i type="int" name="NELM">    60</i>
    <i type="int" name="NELMDL">     0</i>
    <i type="int" name="NELMIN">     2</i>
    <i name="ENINI">    500.00000000</i>
    <separator name="electronic convergence detail" >
     <i type="logical" name="LDIAG"> T  </i>
     <i type="logical" name="LSUBROT"> T  </i>
     <i name="WEIMIN">      0.00000000</i>
     <i name="EBREAK">      0.00000000</i>
     <i name="DEPER">      0.30000000</i>
     <i type="int" name="NRMM">     4</i>
     <i name="TIME">      0.40000000</i>
    </separator>
   </separator>
   <separator name="electronic mixer" >
    <i name="AMIX">      0.40000000</i>
    <i name="BMIX">      1.00000000</i>
    <i name="AMIN">      0.10000000</i>
    <i name="AMIX_MAG">      1.60000000</i>
    <i name="BMIX_MAG">      1.00000000</i>
    <separator name="electronic mixer details" >
     <i type="int" name="IMIX">     4</i>
     <i type="int" name="MAXMIX">   -45</i>
     <i name="WC">    100.00000000</i>
     <i type="int" name="INIMIX">     1</i>
     <i type="int" name="MIXPRE">     1</i>
     <i type="int" name="MREMOVE">     5</i>
    </separator>
   </separator>
   <separator name="electronic dipolcorrection" >
    <i type="logical" name="LDIPOL"> F  </i>
    <i type="logical" name="LMONO"> F  </i>
    <i type="int" name="IDIPOL">     0</i>
    <i name="EPSILON">      1.00000000</i>
    <v name="DIPOL">   -100.00000000   -100.00000000   -100.00000000</v>
    <i name="EFIELD">      0.00000000</i>
   </separator>
  </separator>
  <separator name="grids" >
   <i type="int" name="NGX">    60</i>
   <i type="int" name="NGY">    60</i>
   <i type="int" name="NGZ">    60</i>
   <i type="int" name="NGXF">   120</i>
   <i type="int" name="NGYF">   120</i>
   <i type="int" name="NGZF">   120</i>
   <i type="logical" name="ADDGRID"> T  </i>
  </separator>
  <separator name="ionic" >
   <i type="int" name="NSW">     0</i>
   <i type="int" name="IBRION">    -1</i>
   <i type="int" name="ISIF">     2</i>
   <i name="PSTRESS">      0.00000000</i>
   <i name="EDIFFG">      0.00000010</i>
   <i type="int" name="NFREE">     0</i>
   <i name="POTIM">      0.50000000</i>
   <i name="SMASS">     -3.00000000</i>
   <i name="SCALEE">      1.00000000</i>
  </separator>
  <separator name="ionic md" >
   <i name="TEBEG">      0.00010000</i>
   <i name="TEEND">      0.00010000</i>
   <i type="int" name="NBLOCK">     1</i>
   <i type="int" name="KBLOCK">     1</i>
   <i type="int" name="NPACO">   256</i>
   <i name="APACO">     16.00000000</i>
  </separator>
  <separator name="symmetry" >
   <i type="int" name="ISYM">     0</i>
   <i name="SYMPREC">      0.00001000</i>
  </separator>
  <separator name="dos" >
   <i type="logical" name="LORBIT"> F  </i>
   <v name="RWIGS">     -1.00000000</v>
   <i type="int" name="NEDOS">   301</i>
   <i name="EMIN">     10.00000000</i>
   <i name="EMAX">    -10.00000000</i>
   <i name="EFERMI">      0.00000000</i>
  </separator>
  <separator name="writing" >
   <i type="int" name="NWRITE">     2</i>
   <i type="logical" name="LWAVE"> F  </i>
   <i type="logical" name="LCHARG"> T  </i>
   <i type="logical" name="LPARD"> F  </i>
   <i type="logical" name="LVTOT"> F  </i>
   <i type="logical" name="LVHAR"> F  </i>
   <i type="logical" name="LELF"> F  </i>
   <i type="logical" name="LOPTICS"> F  </i>
   <v name="STM">      0.00000000      0.00000000      0.00000000      0.00000000      0.00000000      0.00000000      0.00000000</v>
  </separator>
  <separator name="performance" >
   <i type="int" name="NPAR">     1</i>
   <i type="int" name="NSIM">     4</i>
   <i type="int" name="NBLK">    -1</i>
   <i type="logical" name="LPLANE"> T  </i>
   <i type="logical" name="LSCALAPACK"> F  </i>
   <i type="logical" name="LSCAAWARE"> F  </i>
   <i type="logical" name="LSCALU"> F  </i>
   <i type="logical" name="LASYNC"> F  </i>
   <i type="logical" name="LORBITALREAL"> F  </i>
  </separator>
  <separator name="miscellaneous" >
   <i type="int" name="IDIOT">     3</i>
   <i type="logical" name="LMUSIC"> F  </i>
   <v name="POMASS">    106.42000000</v>
   <v name="DARWINR">      0.00000000</v>
   <v name="DARWINV">      1.00000000</v>
   <i type="logical" name="LCORR"> T  </i>
  </separator>
  <i type="logical" name="GGA_COMPAT"> T  </i>
  <i type="logical" name="LBERRY"> F  </i>
  <i type="int" name="ICORELEVEL">     0</i>
  <i type="logical" name="LDAU"> F  </i>
  <i type="int" name="I_CONSTRAINED_M">     0</i>
  <separator name="electronic exchange-correlation" >
   <i type="string" name="GGA">--</i>
   <i type="int" name="VOSKOWN">     0</i>
   <i type="logical" name="LHFCALC"> F  </i>
   <i type="string" name="PRECFOCK"></i>
   <i type="logical" name="LSYMGRAD"> F  </i>
   <i type="logical" name="LHFONE"> F  </i>
   <i type="logical" name="LRHFCALC"> F  </i>
   <i type="logical" name="LTHOMAS"> F  </i>
   <i type="logical" name="LMODELHF"> F  </i>
   <i name="ENCUT4O">     -1.00000000</i>
   <i type="int" name="EXXOEP">     0</i>
   <i type="int" name="FOURORBIT">     0</i>
   <i name="AEXX">      0.00000000</i>
   <i name="HFALPHA">      0.00000000</i>
   <i name="MCALPHA">      0.00000000</i>
   <i name="ALDAX">      1.00000000</i>
   <i name="AGGAX">      1.00000000</i>
   <i name="ALDAC">      1.00000000</i>
   <i name="AGGAC">      1.00000000</i>
   <i type="int" name="NKREDX">     1</i>
   <i type="int" name="NKREDY">     1</i>
   <i type="int" name="NKREDZ">     1</i>
   <i type="logical" name="SHIFTRED"> F  </i>
   <i type="logical" name="ODDONLY"> F  </i>
   <i type="logical" name="EVENONLY"> F  </i>
   <i type="int" name="LMAXFOCK">     0</i>
   <i type="int" name="NMAXFOCKAE">     0</i>
   <i type="logical" name="LFOCKAEDFT"> F  </i>
   <i name="HFSCREEN">      0.00000000</i>
   <i name="HFSCREENC">      0.00000000</i>
   <i type="int" name="NBANDSGWLOW">     0</i>
  </separator>
  <separator name="vdW DFT" >
   <i type="logical" name="LUSE_VDW"> F  </i>
   <i name="Zab_VDW">     -0.84910000</i>
   <i name="PARAM1">      0.12340000</i>
   <i name="PARAM2">      1.00000000</i>
   <i name="PARAM3">      0.00000000</i>
  </separator>
  <separator name="model GW" >
   <i type="int" name="MODEL_GW">     0</i>
   <i name="MODEL_EPS0">      9.08393385</i>
   <i name="MODEL_ALPHA">      1.00000000</i>
  </separator>
  <separator name="linear response parameters" >
   <i type="logical" name="LEPSILON"> F  </i>
   <i type="logical" name="LRPA"> F  </i>
   <i type="logical" name="LNABLA"> F  </i>
   <i type="logical" name="LVEL"> F  </i>
   <i type="int" name="KINTER">     0</i>
   <i name="CSHIFT">      0.10000000</i>
   <i name="OMEGAMAX">     -1.00000000</i>
   <i name="DEG_THRESHOLD">      0.00200000</i>
  </separator>
  <separator name="orbital magnetization" >
   <i type="logical" name="NUCIND"> F  </i>
   <v name="MAGPOS">      0.00000000      0.00000000      0.00000000</v>
   <i type="logical" name="LNICSALL"> T  </i>
   <i type="logical" name="ORBITALMAG"> F  </i>
   <i type="logical" name="LMAGBLOCH"> F  </i>
   <i type="logical" name="LCHIMAG"> F  </i>
   <i type="logical" name="LGAUGE"> T  </i>
   <i type="int" name="MAGATOM">     0</i>
   <v name="MAGDIPOL">      0.00000000      0.00000000      0.00000000</v>
   <v name="AVECCONST">      0.00000000      0.00000000      0.00000000</v>
  </separator>
  <separator name="response functions" >
   <i type="logical" name="LADDER"> F  </i>
   <i type="logical" name="LFXC"> F  </i>
   <i type="logical" name="LHARTREE"> T  </i>
   <i type="int" name="IBSE">     0</i>
   <i type="logical" name="LTCTE"> F  </i>
   <i type="logical" name="LTETE"> F  </i>
   <i type="logical" name="LTRIPLET"> F  </i>
   <i type="logical" name="LFXCEPS"> F  </i>
   <i type="logical" name="L2ORDER"> F  </i>
   <i type="logical" name="LUSEW"> F  </i>
   <i name="ENCUTGW">     -2.00000000</i>
   <i name="ENCUTGWSOFT">     -2.00000000</i>
   <i name="ENCUTLF">     -1.00000000</i>
   <i type="int" name="LMAXMP2">    -1</i>
   <i name="SCISSOR">      0.00000000</i>
   <i type="int" name="NOMEGA">     0</i>
   <i type="int" name="NOMEGAR">     0</i>
   <i type="int" name="NBANDSGW">    -1</i>
   <i type="int" name="NBANDSO">    -1</i>
   <i type="int" name="NBANDSV">    -1</i>
   <i type="int" name="NELM">     1</i>
   <i type="int" name="DIM">     3</i>
   <i type="int" name="ANTIRES">     0</i>
   <i name="OMEGAMAX">    -30.00000000</i>
   <i name="OMEGATL">   -200.00000000</i>
   <i type="int" name="OMEGAGRID">     0</i>
   <i name="CSHIFT">     -0.10000000</i>
   <i type="logical" name="SELFENERGY"> F  </i>
   <i type="logical" name="LSPECTRAL"> F  </i>
   <i type="logical" name="ODDONLYGW"> F  </i>
   <i type="logical" name="EVENONLYGW"> F  </i>
   <i type="int" name="NKREDLFX">     1</i>
   <i type="int" name="NKREDLFY">     1</i>
   <i type="int" name="NKREDLFZ">     1</i>
   <i type="int" name="MAXMEM">  1800</i>
   <i type="int" name="TELESCOPE">     0</i>
  </separator>
 </parameters>
 <atominfo>
  <atoms>      32 </atoms>
  <types>       1 </types>
  <array name="atoms" >
   <dimension dim="1">ion</dimension>
   <field type="string">element</field>
   <field type="int">atomtype</field>
   <set>
    <rc><c>Pd</c><c>   1</c></rc>
    <rc><c>Pd</c><c>   1</c></rc>
    <rc><c>Pd</c><c>   1</c></rc>
    <rc><c>Pd</c><c>   1</c></rc>
    <rc><c>Pd</c><c>   1</c></rc>
    <rc><c>Pd</c><c>   1</c></rc>
    <rc><c>Pd</c><c>   1</c></rc>
    <rc><c>Pd</c><c>   1</c></rc>
    <rc><c>Pd</c><c>   1</c></rc>
    <rc><c>Pd</c><c>   1</c></rc>
    <rc><c>Pd</c><c>   1</c></rc>
    <rc><c>Pd</c><c>   1</c></rc>
    <rc><c>Pd</c><c>   1</c></rc>
    <rc><c>Pd</c><c>   1</c></rc>
    <rc><c>Pd</c><c>   1</c></rc>
    <rc><c>Pd</c><c>   1</c></rc>
    <rc><c>Pd</c><c>   1</c></rc>
    <rc><c>Pd</c><c>   1</c></rc>
    <rc><c>Pd</c><c>   1</c></rc>
    <rc><c>Pd</c><c>   1</c></rc>
    <rc><c>Pd</c><c>   1</c></rc>
    <rc><c>Pd</c><c>   1</c></rc>
    <rc><c>Pd</c><c>   1</c></rc>
    <rc><c>Pd</c><c>   1</c></rc>
    <rc><c>Pd</c><c>   1</c></rc>
    <rc><c>Pd</c><c>   1</c></rc>
    <rc><c>Pd</c><c>   1</c></rc>
    <rc><c>Pd</c><c>   1</c></rc>
    <rc><c>Pd</c><c>   1</c></rc>
    <rc><c>Pd</c><c>   1</c></rc>
    <rc><c>Pd</c><c>   1</c></rc>
    <rc><c>Pd</c><c>   1</c></rc>
   </set>
  </array>
  <array name="atomtypes" >
   <dimension dim="1">type</dimension>
   <field type="int">atomspertype</field>
   <field type="string">element</field>
   <field>mass</field>
   <field>valence</field>
   <field type="string">pseudopotential</field>
   <set>
    <rc><c>  32</c><c>Pd</c><c>    106.42000000</c><c>     16.00000000</c><c>  PAW_PBE Pd_pv 28Jan2005               </c></rc>
   </set>
  </array>
 </atominfo>
 <structure name="initialpos" >
  <crystal>
   <varray name="basis" >
    <v>       7.85400000      -0.00000000      -0.00000000 </v>
    <v>      -0.00000000       7.85400000       0.00000000 </v>
    <v>       0.00000000       0.00000000       7.85400000 </v>
   </varray>
   <i name="volume">    484.47647186 </i>
   <varray name="rec_basis" >
    <v>       0.12732366       0.00000000      -0.00000000 </v>
    <v>       0.00000000       0.12732366      -0.00000000 </v>
    <v>       0.00000000      -0.00000000       0.12732366 </v>
   </varray>
  </crystal>
  <varray name="positions" >
   <v>       0.00127324       0.00000000       0.00000000 </v>
   <v>       0.00000000       0.25000000       0.25000000 </v>
   <v>       0.00000000       0.50000000       0.50000000 </v>
   <v>       0.00000000       0.75000000       0.75000000 </v>
   <v>       0.25000000       0.00000000       0.25000000 </v>
   <v>       0.25000000       0.25000000       0.50000000 </v>
   <v>       0.25000000       0.50000000       0.75000000 </v>
   <v>       0.25000000       0.75000000       0.00000000 </v>
   <v>       0.50000000       0.00000000       0.50000000 </v>
   <v>       0.50000000       0.25000000       0.75000000 </v>
   <v>       0.50000000       0.50000000       0.00000000 </v>
   <v>       0.50000000       0.75000000       0.25000000 </v>
   <v>       0.75000000       0.00000000       0.75000000 </v>
   <v>       0.75000000       0.25000000       0.00000000 </v>
   <v>       0.75000000       0.50000000       0.25000000 </v>
   <v>       0.75000000       0.75000000       0.50000000 </v>
   <v>       0.25000000       0.25000000       0.00000000 </v>
   <v>       0.25000000       0.50000000       0.25000000 </v>
   <v>       0.25000000       0.75000000       0.50000000 </v>
   <v>       0.25000000       0.00000000       0.75000000 </v>
   <v>       0.50000000       0.25000000       0.25000000 </v>
   <v>       0.50000000       0.50000000       0.50000000 </v>
   <v>       0.50000000       0.75000000       0.75000000 </v>
   <v>       0.50000000       0.00000000       0.00000000 </v>
   <v>       0.75000000       0.25000000       0.50000000 </v>
   <v>       0.75000000       0.50000000       0.75000000 </v>
   <v>       0.75000000       0.75000000       0.00000000 </v>
   <v>       0.75000000       0.00000000       0.25000000 </v>
   <v>       0.00000000       0.25000000       0.75000000 </v>
   <v>       0.00000000       0.50000000       0.00000000 </v>
   <v>       0.00000000       0.75000000       0.25000000 </v>
   <v>       0.00000000       0.00000000       0.50000000 </v>
  </varray>
 </structure>
 <calculation>
  <scstep>
   <time name="dav">  649.16  649.73</time>
   <time name="total">  651.64  652.22</time>
   <energy>
    <i name="alphaZ">   4309.77481446 </i>
    <i name="ewald"> -68862.23829894 </i>
    <i name="hartreedc"> -17896.79401706 </i>
    <i name="XCdc">   2649.00743571 </i>
    <i name="pawpsdc">  72255.69020719 </i>
    <i name="pawaedc"> -71333.34611920 </i>
    <i name="eentropy">     -0.02733374 </i>
    <i name="bandstr">   2074.02493230 </i>
    <i name="atom">  83889.46633811 </i>
    <i name="e_fr_energy">   7085.55795883 </i>
    <i name="e_wo_entrp">   7085.58529257 </i>
    <i name="e_0_energy">   7085.57162570 </i>
   </energy>
  </scstep>
  <scstep>
   <time name="dav">  643.89  644.45</time>
   <time name="total">  643.90  644.47</time>
   <energy>
    <i name="e_fr_energy">    255.83435205 </i>
    <i name="e_wo_entrp">    255.92433864 </i>
    <i name="e_0_energy">    255.87934534 </i>
   </energy>
  </scstep>
  <scstep>
   <time name="dav">  668.11  668.68</time>
   <time name="total">  668.12  668.71</time>
   <energy>
    <i name="e_fr_energy">   -162.53042840 </i>
    <i name="e_wo_entrp">   -162.15933609 </i>
    <i name="e_0_energy">   -162.34488224 </i>
   </energy>
  </scstep>
  <scstep>
   <time name="dav">  670.71  671.31</time>
   <time name="total">  670.73  671.33</time>
   <energy>
    <i name="e_fr_energy">   -175.08639553 </i>
    <i name="e_wo_entrp">   -174.71114838 </i>
    <i name="e_0_energy">   -174.89877195 </i>
   </energy>
  </scstep>
  <scstep>
   <time name="dav">  669.87  670.46</time>
   <time name="total">  719.58  720.22</time>
   <energy>
    <i name="e_fr_energy">   -175.22214151 </i>
    <i name="e_wo_entrp">   -174.84681583 </i>
    <i name="e_0_energy">   -175.03447867 </i>
   </energy>
  </scstep>
  <scstep>
   <time name="dav">  666.93  667.50</time>
   <time name="total">  718.86  719.48</time>
   <energy>
    <i name="e_fr_energy">   -166.97103234 </i>
    <i name="e_wo_entrp">   -166.57809451 </i>
    <i name="e_0_energy">   -166.77456343 </i>
   </energy>
  </scstep>
  <scstep>
   <time name="dav">  665.50  666.08</time>
   <time name="total">  717.40  718.03</time>
   <energy>
    <i name="e_fr_energy">   -166.87545444 </i>
    <i name="e_wo_entrp">   -166.48364803 </i>
    <i name="e_0_energy">   -166.67955123 </i>
   </energy>
  </scstep>
  <scstep>
   <time name="dav">  668.87  669.45</time>
   <time name="total">  720.91  721.53</time>
   <energy>
    <i name="e_fr_energy">   -166.84070091 </i>
    <i name="e_wo_entrp">   -166.44959231 </i>
    <i name="e_0_energy">   -166.64514661 </i>
   </energy>
  </scstep>
  <scstep>
   <time name="dav">  674.31  674.91</time>
   <time name="total">  726.26  726.91</time>
   <energy>
    <i name="e_fr_energy">   -166.83738605 </i>
    <i name="e_wo_entrp">   -166.44621452 </i>
    <i name="e_0_energy">   -166.64180028 </i>
   </energy>
  </scstep>
  <scstep>
   <time name="dav">  723.77  724.41</time>
   <time name="total">  775.74  776.44</time>
   <energy>
    <i name="e_fr_energy">   -166.83736377 </i>
    <i name="e_wo_entrp">   -166.44621655 </i>
    <i name="e_0_energy">   -166.64179016 </i>
   </energy>
  </scstep>
  <scstep>
   <time name="dav">  668.49  669.07</time>
   <time name="total">  720.37  721.00</time>
   <energy>
    <i name="e_fr_energy">   -166.83730034 </i>
    <i name="e_wo_entrp">   -166.44621103 </i>
    <i name="e_0_energy">   -166.64175568 </i>
   </energy>
  </scstep>
  <scstep>
   <time name="dav">  670.78  671.36</time>
   <time name="total">  722.81  723.44</time>
   <energy>
    <i name="e_fr_energy">   -166.83729045 </i>
    <i name="e_wo_entrp">   -166.44624704 </i>
    <i name="e_0_energy">   -166.64176875 </i>
   </energy>
  </scstep>
  <scstep>
   <time name="dav">  674.17  674.75</time>
   <time name="total">  726.13  726.78</time>
   <energy>
    <i name="e_fr_energy">   -166.83724219 </i>
    <i name="e_wo_entrp">   -166.44621493 </i>
    <i name="e_0_energy">   -166.64172856 </i>
   </energy>
  </scstep>
  <scstep>
   <time name="dav">  681.87  682.48</time>
   <time name="total">  733.82  734.54</time>
   <energy>
    <i name="e_fr_energy">   -166.83723644 </i>
    <i name="e_wo_entrp">   -166.44620936 </i>
    <i name="e_0_energy">   -166.64172290 </i>
   </energy>
  </scstep>
  <scstep>
   <time name="dav">  672.19  672.77</time>
   <time name="total">  724.14  724.78</time>
   <energy>
    <i name="e_fr_energy">   -166.83723412 </i>
    <i name="e_wo_entrp">   -166.44620451 </i>
    <i name="e_0_energy">   -166.64171932 </i>
   </energy>
  </scstep>
  <scstep>
   <time name="dav">  671.93  672.52</time>
   <time name="total">  723.90  724.54</time>
   <energy>
    <i name="e_fr_energy">   -166.83723381 </i>
    <i name="e_wo_entrp">   -166.44620346 </i>
    <i name="e_0_energy">   -166.64171863 </i>
   </energy>
  </scstep>
  <scstep>
   <time name="dav">  701.40  702.02</time>
   <time name="total">  763.07  763.81</time>
   <energy>
    <i name="e_fr_energy">   -166.83723368 </i>
    <i name="e_wo_entrp">   -166.44620165 </i>
    <i name="e_0_energy">   -166.64171767 </i>
   </energy>
  </scstep>
  <scstep>
   <time name="dav">  726.42  727.08</time>
   <time name="total">  787.85  788.58</time>
   <energy>
    <i name="e_fr_energy">   -166.83723370 </i>
    <i name="e_wo_entrp">   -166.44620117 </i>
    <i name="e_0_energy">   -166.64171744 </i>
   </energy>
  </scstep>
  <scstep>
   <time name="dav">  528.49  528.95</time>
   <time name="total">  589.56  590.09</time>
   <energy>
    <i name="e_fr_energy">   -166.83723397 </i>
    <i name="e_wo_entrp">   -166.44620159 </i>
    <i name="e_0_energy">   -166.64171778 </i>
   </energy>
  </scstep>
  <scstep>
   <time name="dav">  505.39  505.84</time>
   <time name="total">  564.06  564.56</time>
   <energy>
    <i name="e_fr_energy">   -166.83723419 </i>
    <i name="e_wo_entrp">   -166.44620194 </i>
    <i name="e_0_energy">   -166.64171806 </i>
   </energy>
  </scstep>
  <scstep>
   <time name="dav">  476.47  476.89</time>
   <time name="total">  535.18  535.67</time>
   <energy>
    <i name="e_fr_energy">   -166.83723429 </i>
    <i name="e_wo_entrp">   -166.44620207 </i>
    <i name="e_0_energy">   -166.64171818 </i>
   </energy>
  </scstep>
  <scstep>
   <time name="dav">  473.20  473.62</time>
   <time name="total">  527.77  528.23</time>
   <energy>
    <i name="e_fr_energy">   -166.83723441 </i>
    <i name="e_wo_entrp">   -166.44620224 </i>
    <i name="e_0_energy">   -166.64171833 </i>
   </energy>
  </scstep>
  <scstep>
   <time name="dav">  442.60  443.00</time>
   <time name="total">  445.23  445.65</time>
   <energy>
    <i name="alphaZ">   4309.77481446 </i>
    <i name="ewald"> -68862.23829894 </i>
    <i name="hartreedc"> -17319.00495100 </i>
    <i name="XCdc">   2623.75586865 </i>
    <i name="pawpsdc">  76529.32806492 </i>
    <i name="pawaedc"> -75688.34193204 </i>
    <i name="eentropy">     -0.39103216 </i>
    <i name="bandstr">  -5649.18610641 </i>
    <i name="atom">  83889.46633811 </i>
    <i name="e_fr_energy">   -166.83723441 </i>
    <i name="e_wo_entrp">   -166.44620225 </i>
    <i name="e_0_energy">   -166.64171833 </i>
   </energy>
  </scstep>
  <structure>
   <crystal>
    <varray name="basis" >
     <v>       7.85400000      -0.00000000      -0.00000000 </v>
     <v>      -0.00000000       7.85400000       0.00000000 </v>
     <v>       0.00000000       0.00000000       7.85400000 </v>
    </varray>
    <i name="volume">    484.47647186 </i>
    <varray name="rec_basis" >
     <v>       0.12732366       0.00000000      -0.00000000 </v>
     <v>       0.00000000       0.12732366      -0.00000000 </v>
     <v>       0.00000000      -0.00000000       0.12732366 </v>
    </varray>
   </crystal>
   <varray name="positions" >
    <v>       0.00127324       0.00000000       0.00000000 </v>
    <v>       0.00000000       0.25000000       0.25000000 </v>
    <v>       0.00000000       0.50000000       0.50000000 </v>
    <v>       0.00000000       0.75000000       0.75000000 </v>
    <v>       0.25000000       0.00000000       0.25000000 </v>
    <v>       0.25000000       0.25000000       0.50000000 </v>
    <v>       0.25000000       0.50000000       0.75000000 </v>
    <v>       0.25000000       0.75000000       0.00000000 </v>
    <v>       0.50000000       0.00000000       0.50000000 </v>
    <v>       0.50000000       0.25000000       0.75000000 </v>
    <v>       0.50000000       0.50000000       0.00000000 </v>
    <v>       0.50000000       0.75000000       0.25000000 </v>
    <v>       0.75000000       0.00000000       0.75000000 </v>
    <v>       0.75000000       0.25000000       0.00000000 </v>
    <v>       0.75000000       0.50000000       0.25000000 </v>
    <v>       0.75000000       0.75000000       0.50000000 </v>
    <v>       0.25000000       0.25000000       0.00000000 </v>
    <v>       0.25000000       0.50000000       0.25000000 </v>
    <v>       0.25000000       0.75000000       0.50000000 </v>
    <v>       0.25000000       0.00000000       0.75000000 </v>
    <v>       0.50000000       0.25000000       0.25000000 </v>
    <v>       0.50000000       0.50000000       0.50000000 </v>
    <v>       0.50000000       0.75000000       0.75000000 </v>
    <v>       0.50000000       0.00000000       0.00000000 </v>
    <v>       0.75000000       0.25000000       0.50000000 </v>
    <v>       0.75000000       0.50000000       0.75000000 </v>
    <v>       0.75000000       0.75000000       0.00000000 </v>
    <v>       0.75000000       0.00000000       0.25000000 </v>
    <v>       0.00000000       0.25000000       0.75000000 </v>
    <v>       0.00000000       0.50000000       0.00000000 </v>
    <v>       0.00000000       0.75000000       0.25000000 </v>
    <v>       0.00000000       0.00000000       0.50000000 </v>
   </varray>
  </structure>
  <varray name="forces" >
   <v>      -0.08725552       0.00000002      -0.00000010 </v>
   <v>      -0.00099920      -0.00001486      -0.00001485 </v>
   <v>      -0.00041261      -0.00000015       0.00000006 </v>
   <v>      -0.00099922       0.00001484       0.00001484 </v>
   <v>       0.01145718       0.00008988       0.01312090 </v>
   <v>       0.00004452       0.00047358       0.00004188 </v>
   <v>       0.00004550       0.00001352      -0.00050773 </v>
   <v>       0.01145668      -0.01309817      -0.00004801 </v>
   <v>      -0.00263825       0.00000028      -0.00000004 </v>
   <v>       0.00083958       0.00000795      -0.00000868 </v>
   <v>      -0.00229275      -0.00000004      -0.00000006 </v>
   <v>       0.00083953      -0.00000766       0.00000842 </v>
   <v>       0.01111743       0.00009438       0.01266766 </v>
   <v>       0.01111732      -0.01264682      -0.00005290 </v>
   <v>       0.00005403       0.00001501      -0.00049439 </v>
   <v>       0.00005342       0.00046366       0.00004044 </v>
   <v>       0.01145669       0.01309810       0.00004816 </v>
   <v>       0.00004573      -0.00001367       0.00050776 </v>
   <v>       0.00004428      -0.00047381      -0.00004185 </v>
   <v>       0.01145741      -0.00008978      -0.01312078 </v>
   <v>       0.00088952       0.00000724       0.00000776 </v>
   <v>       0.00054511      -0.00000008      -0.00000004 </v>
   <v>       0.00088954      -0.00000733      -0.00000767 </v>
   <v>       0.00194852       0.00000011      -0.00000000 </v>
   <v>       0.00005340      -0.00046367      -0.00004055 </v>
   <v>       0.00005389      -0.00001482       0.00049435 </v>
   <v>       0.01111737       0.01264698       0.00005313 </v>
   <v>       0.01111748      -0.00009445      -0.01266765 </v>
   <v>      -0.00105901      -0.00001264       0.00001433 </v>
   <v>      -0.00002157      -0.00000008       0.00000009 </v>
   <v>      -0.00105911       0.00001260      -0.00001455 </v>
   <v>       0.00009309      -0.00000009       0.00000008 </v>
  </varray>
  <varray name="stress" >
   <v>      21.73241306       0.00001990       0.00002765 </v>
   <v>       0.00002653      22.48942895       2.38383956 </v>
   <v>       0.00001309       2.38384101      19.70348579 </v>
  </varray>
  <energy>
   <i name="e_fr_energy">   -166.83723441 </i>
   <i name="e_wo_entrp">   -166.64171833 </i>
   <i name="e_0_energy">     -0.39103216 </i>
  </energy>
  <time name="totalsc">16476.1216490.97</time>
  <eigenvalues>
   <array>
    <dimension dim="1">band</dimension>
    <dimension dim="2">kpoint</dimension>
    <dimension dim="3">spin</dimension>
    <field>eigene</field>
    <field>occ</field>
    <set>
     <set comment="spin 1">
      <set comment="kpoint 1">
       <r>  -40.7695    1.0000 </r>
       <r>  -40.7622    1.0000 </r>
       <r>  -40.7598    1.0000 </r>
       <r>  -40.7568    1.0000 </r>
       <r>  -40.7468    1.0000 </r>
       <r>  -40.7429    1.0000 </r>
       <r>  -40.7418    1.0000 </r>
       <r>  -40.7069    1.0000 </r>
       <r>  -40.6946    1.0000 </r>
       <r>  -40.6912    1.0000 </r>
       <r>  -40.6901    1.0000 </r>
       <r>  -40.6885    1.0000 </r>
       <r>  -40.6878    1.0000 </r>
       <r>  -40.6863    1.0000 </r>
       <r>  -40.6816    1.0000 </r>
       <r>  -40.6811    1.0000 </r>
       <r>  -40.6809    1.0000 </r>
       <r>  -40.6776    1.0000 </r>
       <r>  -40.6740    1.0000 </r>
       <r>  -40.6710    1.0000 </r>
       <r>  -40.6705    1.0000 </r>
       <r>  -40.6686    1.0000 </r>
       <r>  -40.6684    1.0000 </r>
       <r>  -40.6547    1.0000 </r>
       <r>  -40.6478    1.0000 </r>
       <r>  -40.6376    1.0000 </r>
       <r>  -40.6366    1.0000 </r>
       <r>  -40.6351    1.0000 </r>
       <r>  -40.6271    1.0000 </r>
       <r>  -40.6244    1.0000 </r>
       <r>  -40.6239    1.0000 </r>
       <r>  -40.6234    1.0000 </r>
       <r>  -40.6117    1.0000 </r>
       <r>  -40.6108    1.0000 </r>
       <r>  -40.6093    1.0000 </r>
       <r>  -40.5941    1.0000 </r>
       <r>  -40.5811    1.0000 </r>
       <r>  -40.5764    1.0000 </r>
       <r>  -40.5743    1.0000 </r>
       <r>  -40.5651    1.0000 </r>
       <r>  -40.5634    1.0000 </r>
       <r>  -40.5554    1.0000 </r>
       <r>  -40.5547    1.0000 </r>
       <r>  -40.5456    1.0000 </r>
       <r>  -40.5436    1.0000 </r>
       <r>  -40.5426    1.0000 </r>
       <r>  -40.5422    1.0000 </r>
       <r>  -40.5418    1.0000 </r>
       <r>  -40.5409    1.0000 </r>
       <r>  -40.5392    1.0000 </r>
       <r>  -40.5343    1.0000 </r>
       <r>  -40.5331    1.0000 </r>
       <r>  -40.5320    1.0000 </r>
       <r>  -40.5306    1.0000 </r>
       <r>  -40.5300    1.0000 </r>
       <r>  -40.5294    1.0000 </r>
       <r>  -40.5276    1.0000 </r>
       <r>  -40.5255    1.0000 </r>
       <r>  -40.5154    1.0000 </r>
       <r>  -40.5125    1.0000 </r>
       <r>  -40.5110    1.0000 </r>
       <r>  -40.5055    1.0000 </r>
       <r>  -40.4944    1.0000 </r>
       <r>  -40.4938    1.0000 </r>
       <r>  -40.4832    1.0000 </r>
       <r>  -40.4828    1.0000 </r>
       <r>  -40.4799    1.0000 </r>
       <r>  -40.4793    1.0000 </r>
       <r>  -40.4791    1.0000 </r>
       <r>  -40.4788    1.0000 </r>
       <r>  -40.4772    1.0000 </r>
       <r>  -40.4743    1.0000 </r>
       <r>  -40.4722    1.0000 </r>
       <r>  -40.4704    1.0000 </r>
       <r>  -40.4675    1.0000 </r>
       <r>  -40.4668    1.0000 </r>
       <r>  -40.4664    1.0000 </r>
       <r>  -40.4645    1.0000 </r>
       <r>  -40.4642    1.0000 </r>
       <r>  -40.4625    1.0000 </r>
       <r>  -40.4615    1.0000 </r>
       <r>  -40.4615    1.0000 </r>
       <r>  -40.4607    1.0000 </r>
       <r>  -40.4598    1.0000 </r>
       <r>  -40.4590    1.0000 </r>
       <r>  -40.4578    1.0000 </r>
       <r>  -40.4529    1.0000 </r>
       <r>  -40.4493    1.0000 </r>
       <r>  -40.4489    1.0000 </r>
       <r>  -40.4446    1.0000 </r>
       <r>  -40.4428    1.0000 </r>
       <r>  -40.4407    1.0000 </r>
       <r>  -40.4393    1.0000 </r>
       <r>  -40.4289    1.0000 </r>
       <r>  -40.4106    1.0000 </r>
       <r>  -40.4038    1.0000 </r>
       <r>    2.4895    1.0000 </r>
       <r>    3.7743    1.0000 </r>
       <r>    4.1403    1.0000 </r>
       <r>    4.1608    1.0000 </r>
       <r>    4.1624    1.0000 </r>
       <r>    4.1626    1.0000 </r>
       <r>    4.2303    1.0000 </r>
       <r>    4.2481    1.0000 </r>
       <r>    4.2523    1.0000 </r>
       <r>    4.2739    1.0000 </r>
       <r>    4.3681    1.0000 </r>
       <r>    4.3961    1.0000 </r>
       <r>    4.4227    1.0000 </r>
       <r>    4.4352    1.0000 </r>
       <r>    4.5808    1.0000 </r>
       <r>    4.6563    1.0000 </r>
       <r>    4.6786    1.0000 </r>
       <r>    4.8531    1.0000 </r>
       <r>    4.8623    1.0000 </r>
       <r>    4.8726    1.0000 </r>
       <r>    4.9113    1.0000 </r>
       <r>    4.9791    1.0000 </r>
       <r>    4.9866    1.0000 </r>
       <r>    4.9948    1.0000 </r>
       <r>    5.0451    1.0000 </r>
       <r>    5.0649    1.0000 </r>
       <r>    5.0920    1.0000 </r>
       <r>    5.1010    1.0000 </r>
       <r>    5.1223    1.0000 </r>
       <r>    5.1434    1.0000 </r>
       <r>    5.1557    1.0000 </r>
       <r>    5.2004    1.0000 </r>
       <r>    5.2435    1.0000 </r>
       <r>    5.2492    1.0000 </r>
       <r>    5.2615    1.0000 </r>
       <r>    5.3012    1.0000 </r>
       <r>    5.3124    1.0000 </r>
       <r>    5.3305    1.0000 </r>
       <r>    5.4249    1.0000 </r>
       <r>    5.5008    1.0000 </r>
       <r>    5.5129    1.0000 </r>
       <r>    5.5468    1.0000 </r>
       <r>    5.5855    1.0000 </r>
       <r>    5.5865    1.0000 </r>
       <r>    5.6598    1.0000 </r>
       <r>    5.6732    1.0000 </r>
       <r>    5.7189    1.0000 </r>
       <r>    5.7857    1.0000 </r>
       <r>    5.8223    1.0000 </r>
       <r>    5.8276    1.0000 </r>
       <r>    5.8387    1.0000 </r>
       <r>    5.8846    1.0000 </r>
       <r>    5.9076    1.0000 </r>
       <r>    5.9209    1.0000 </r>
       <r>    5.9371    1.0000 </r>
       <r>    5.9563    1.0000 </r>
       <r>    5.9592    1.0000 </r>
       <r>    6.0350    1.0000 </r>
       <r>    6.1053    1.0000 </r>
       <r>    6.1069    1.0000 </r>
       <r>    6.1309    1.0000 </r>
       <r>    6.1614    1.0000 </r>
       <r>    6.1730    1.0000 </r>
       <r>    6.2288    1.0000 </r>
       <r>    6.2408    1.0000 </r>
       <r>    6.2642    1.0000 </r>
       <r>    6.2791    1.0000 </r>
       <r>    6.2845    1.0000 </r>
       <r>    6.3100    1.0000 </r>
       <r>    6.3297    1.0000 </r>
       <r>    6.3411    1.0000 </r>
       <r>    6.3562    1.0000 </r>
       <r>    6.3610    1.0000 </r>
       <r>    6.4519    1.0000 </r>
       <r>    6.4540    1.0000 </r>
       <r>    6.4943    1.0000 </r>
       <r>    6.5083    1.0000 </r>
       <r>    6.5216    1.0000 </r>
       <r>    6.5524    1.0000 </r>
       <r>    6.5540    1.0000 </r>
       <r>    6.5577    1.0000 </r>
       <r>    6.5668    1.0000 </r>
       <r>    6.5695    1.0000 </r>
       <r>    6.5801    1.0000 </r>
       <r>    6.6163    1.0000 </r>
       <r>    6.6968    1.0000 </r>
       <r>    6.7904    1.0000 </r>
       <r>    6.8056    1.0000 </r>
       <r>    6.8905    1.0000 </r>
       <r>    6.9115    1.0000 </r>
       <r>    7.0179    1.0000 </r>
       <r>    7.0413    1.0000 </r>
       <r>    7.0541    1.0000 </r>
       <r>    7.1202    1.0000 </r>
       <r>    7.1655    1.0000 </r>
       <r>    7.2075    1.0000 </r>
       <r>    7.2338    1.0000 </r>
       <r>    7.2404    1.0000 </r>
       <r>    7.2734    1.0000 </r>
       <r>    7.3035    1.0000 </r>
       <r>    7.3792    1.0000 </r>
       <r>    7.4137    1.0000 </r>
       <r>    7.5069    1.0000 </r>
       <r>    7.5167    1.0000 </r>
       <r>    7.5359    1.0000 </r>
       <r>    7.5886    1.0000 </r>
       <r>    7.6012    1.0000 </r>
       <r>    7.6492    1.0000 </r>
       <r>    7.6648    1.0000 </r>
       <r>    7.6961    1.0000 </r>
       <r>    7.7377    1.0000 </r>
       <r>    7.8088    1.0000 </r>
       <r>    7.8106    1.0000 </r>
       <r>    7.8312    1.0000 </r>
       <r>    7.8931    1.0000 </r>
       <r>    7.9144    1.0000 </r>
       <r>    7.9293    1.0000 </r>
       <r>    7.9532    1.0000 </r>
       <r>    7.9643    1.0000 </r>
       <r>    7.9925    1.0000 </r>
       <r>    8.0058    1.0000 </r>
       <r>    8.0341    1.0000 </r>
       <r>    8.0954    1.0000 </r>
       <r>    8.1078    1.0000 </r>
       <r>    8.1083    1.0000 </r>
       <r>    8.1494    1.0000 </r>
       <r>    8.1616    1.0000 </r>
       <r>    8.1963    1.0000 </r>
       <r>    8.2482    1.0000 </r>
       <r>    8.2711    1.0000 </r>
       <r>    8.3087    1.0000 </r>
       <r>    8.3376    1.0000 </r>
       <r>    8.3539    1.0000 </r>
       <r>    8.3595    1.0000 </r>
       <r>    8.4075    1.0000 </r>
       <r>    8.4197    1.0000 </r>
       <r>    8.4518    1.0000 </r>
       <r>    8.4556    1.0000 </r>
       <r>    8.4624    1.0000 </r>
       <r>    8.4760    1.0000 </r>
       <r>    8.4849    1.0000 </r>
       <r>    8.5542    1.0000 </r>
       <r>    8.6058    1.0000 </r>
       <r>    8.6547    1.0000 </r>
       <r>    8.7875    1.0000 </r>
       <r>    8.7876    1.0000 </r>
       <r>    8.7950    1.0000 </r>
       <r>    8.8830    1.0000 </r>
       <r>    8.9370    0.9998 </r>
       <r>    8.9641    0.9991 </r>
       <r>    8.9748    0.9985 </r>
       <r>    8.9846    0.9977 </r>
       <r>    8.9947    0.9964 </r>
       <r>    8.9960    0.9962 </r>
       <r>    9.0830    0.9252 </r>
       <r>    9.1215    0.8150 </r>
       <r>    9.1264    0.7957 </r>
       <r>    9.1272    0.7928 </r>
       <r>    9.2635    0.1332 </r>
       <r>    9.2643    0.1305 </r>
       <r>    9.2728    0.1069 </r>
       <r>    9.2749    0.1015 </r>
       <r>    9.3245    0.0242 </r>
       <r>    9.4018    0.0011 </r>
       <r>    9.4033    0.0010 </r>
       <r>    9.4109    0.0007 </r>
       <r>    9.4111    0.0007 </r>
       <r>    9.8214    0.0000 </r>
       <r>    9.8986    0.0000 </r>
       <r>   10.0370    0.0000 </r>
       <r>   10.4580    0.0000 </r>
       <r>   10.7339    0.0000 </r>
       <r>   10.7571    0.0000 </r>
       <r>   10.9408    0.0000 </r>
       <r>   11.0764    0.0000 </r>
       <r>   11.2312    0.0000 </r>
       <r>   11.4096    0.0000 </r>
       <r>   11.6363    0.0000 </r>
       <r>   11.9647    0.0000 </r>
       <r>   12.1689    0.0000 </r>
       <r>   12.3619    0.0000 </r>
       <r>   12.4415    0.0000 </r>
       <r>   13.0563    0.0000 </r>
       <r>   13.1789    0.0000 </r>
       <r>   13.2712    0.0000 </r>
       <r>   13.3991    0.0000 </r>
       <r>   15.7527    0.0000 </r>
       <r>   15.9265    0.0000 </r>
       <r>   15.9995    0.0000 </r>
       <r>   16.1808    0.0000 </r>
       <r>   16.3065    0.0000 </r>
       <r>   16.5840    0.0000 </r>
       <r>   16.8028    0.0000 </r>
       <r>   16.8349    0.0000 </r>
       <r>   16.9905    0.0000 </r>
       <r>   17.2357    0.0000 </r>
       <r>   17.2422    0.0000 </r>
       <r>   17.4836    0.0000 </r>
       <r>   18.1049    0.0000 </r>
       <r>   18.6019    0.0000 </r>
       <r>   18.6552    0.0000 </r>
       <r>   18.6763    0.0000 </r>
       <r>   19.0590    0.0000 </r>
       <r>   19.0624    0.0000 </r>
       <r>   19.1962    0.0000 </r>
       <r>   19.4105    0.0000 </r>
       <r>   19.7693    0.0000 </r>
       <r>   19.8256    0.0000 </r>
       <r>   19.8734    0.0000 </r>
       <r>   19.9169    0.0000 </r>
       <r>   19.9457    0.0000 </r>
      </set>
      <set comment="kpoint 2">
       <r>  -40.7436    1.0000 </r>
       <r>  -40.7434    1.0000 </r>
       <r>  -40.7340    1.0000 </r>
       <r>  -40.7337    1.0000 </r>
       <r>  -40.7210    1.0000 </r>
       <r>  -40.7207    1.0000 </r>
       <r>  -40.7199    1.0000 </r>
       <r>  -40.7188    1.0000 </r>
       <r>  -40.7146    1.0000 </r>
       <r>  -40.7135    1.0000 </r>
       <r>  -40.7075    1.0000 </r>
       <r>  -40.7062    1.0000 </r>
       <r>  -40.7030    1.0000 </r>
       <r>  -40.7027    1.0000 </r>
       <r>  -40.6997    1.0000 </r>
       <r>  -40.6995    1.0000 </r>
       <r>  -40.6986    1.0000 </r>
       <r>  -40.6982    1.0000 </r>
       <r>  -40.6940    1.0000 </r>
       <r>  -40.6932    1.0000 </r>
       <r>  -40.6810    1.0000 </r>
       <r>  -40.6805    1.0000 </r>
       <r>  -40.6739    1.0000 </r>
       <r>  -40.6733    1.0000 </r>
       <r>  -40.6638    1.0000 </r>
       <r>  -40.6634    1.0000 </r>
       <r>  -40.6290    1.0000 </r>
       <r>  -40.6289    1.0000 </r>
       <r>  -40.6177    1.0000 </r>
       <r>  -40.6174    1.0000 </r>
       <r>  -40.6025    1.0000 </r>
       <r>  -40.6023    1.0000 </r>
       <r>  -40.5924    1.0000 </r>
       <r>  -40.5924    1.0000 </r>
       <r>  -40.5877    1.0000 </r>
       <r>  -40.5871    1.0000 </r>
       <r>  -40.5809    1.0000 </r>
       <r>  -40.5808    1.0000 </r>
       <r>  -40.5803    1.0000 </r>
       <r>  -40.5793    1.0000 </r>
       <r>  -40.5718    1.0000 </r>
       <r>  -40.5715    1.0000 </r>
       <r>  -40.5350    1.0000 </r>
       <r>  -40.5342    1.0000 </r>
       <r>  -40.5341    1.0000 </r>
       <r>  -40.5334    1.0000 </r>
       <r>  -40.5313    1.0000 </r>
       <r>  -40.5310    1.0000 </r>
       <r>  -40.5307    1.0000 </r>
       <r>  -40.5305    1.0000 </r>
       <r>  -40.5219    1.0000 </r>
       <r>  -40.5213    1.0000 </r>
       <r>  -40.5169    1.0000 </r>
       <r>  -40.5165    1.0000 </r>
       <r>  -40.5164    1.0000 </r>
       <r>  -40.5156    1.0000 </r>
       <r>  -40.5097    1.0000 </r>
       <r>  -40.5093    1.0000 </r>
       <r>  -40.5063    1.0000 </r>
       <r>  -40.5063    1.0000 </r>
       <r>  -40.5014    1.0000 </r>
       <r>  -40.5011    1.0000 </r>
       <r>  -40.5008    1.0000 </r>
       <r>  -40.5006    1.0000 </r>
       <r>  -40.4983    1.0000 </r>
       <r>  -40.4981    1.0000 </r>
       <r>  -40.4931    1.0000 </r>
       <r>  -40.4927    1.0000 </r>
       <r>  -40.4887    1.0000 </r>
       <r>  -40.4884    1.0000 </r>
       <r>  -40.4874    1.0000 </r>
       <r>  -40.4868    1.0000 </r>
       <r>  -40.4757    1.0000 </r>
       <r>  -40.4752    1.0000 </r>
       <r>  -40.4737    1.0000 </r>
       <r>  -40.4731    1.0000 </r>
       <r>  -40.4729    1.0000 </r>
       <r>  -40.4725    1.0000 </r>
       <r>  -40.4703    1.0000 </r>
       <r>  -40.4698    1.0000 </r>
       <r>  -40.4697    1.0000 </r>
       <r>  -40.4689    1.0000 </r>
       <r>  -40.4683    1.0000 </r>
       <r>  -40.4677    1.0000 </r>
       <r>  -40.4658    1.0000 </r>
       <r>  -40.4653    1.0000 </r>
       <r>  -40.4438    1.0000 </r>
       <r>  -40.4435    1.0000 </r>
       <r>  -40.4420    1.0000 </r>
       <r>  -40.4413    1.0000 </r>
       <r>  -40.4317    1.0000 </r>
       <r>  -40.4314    1.0000 </r>
       <r>  -40.4241    1.0000 </r>
       <r>  -40.4237    1.0000 </r>
       <r>  -40.4189    1.0000 </r>
       <r>  -40.4186    1.0000 </r>
       <r>    3.1544    1.0000 </r>
       <r>    3.1569    1.0000 </r>
       <r>    4.2401    1.0000 </r>
       <r>    4.2421    1.0000 </r>
       <r>    4.3553    1.0000 </r>
       <r>    4.3557    1.0000 </r>
       <r>    4.4592    1.0000 </r>
       <r>    4.4619    1.0000 </r>
       <r>    4.4956    1.0000 </r>
       <r>    4.4970    1.0000 </r>
       <r>    4.5018    1.0000 </r>
       <r>    4.5033    1.0000 </r>
       <r>    4.5412    1.0000 </r>
       <r>    4.5433    1.0000 </r>
       <r>    4.5553    1.0000 </r>
       <r>    4.5554    1.0000 </r>
       <r>    4.6776    1.0000 </r>
       <r>    4.6779    1.0000 </r>
       <r>    4.6897    1.0000 </r>
       <r>    4.6926    1.0000 </r>
       <r>    4.7195    1.0000 </r>
       <r>    4.7203    1.0000 </r>
       <r>    4.8129    1.0000 </r>
       <r>    4.8153    1.0000 </r>
       <r>    4.8246    1.0000 </r>
       <r>    4.8249    1.0000 </r>
       <r>    4.8728    1.0000 </r>
       <r>    4.8744    1.0000 </r>
       <r>    4.9538    1.0000 </r>
       <r>    4.9545    1.0000 </r>
       <r>    4.9805    1.0000 </r>
       <r>    4.9810    1.0000 </r>
       <r>    5.1757    1.0000 </r>
       <r>    5.1768    1.0000 </r>
       <r>    5.1771    1.0000 </r>
       <r>    5.1789    1.0000 </r>
       <r>    5.2832    1.0000 </r>
       <r>    5.2851    1.0000 </r>
       <r>    5.3114    1.0000 </r>
       <r>    5.3123    1.0000 </r>
       <r>    5.4369    1.0000 </r>
       <r>    5.4396    1.0000 </r>
       <r>    5.5543    1.0000 </r>
       <r>    5.5566    1.0000 </r>
       <r>    5.5935    1.0000 </r>
       <r>    5.5941    1.0000 </r>
       <r>    5.6244    1.0000 </r>
       <r>    5.6261    1.0000 </r>
       <r>    5.6901    1.0000 </r>
       <r>    5.6903    1.0000 </r>
       <r>    5.8582    1.0000 </r>
       <r>    5.8605    1.0000 </r>
       <r>    5.9366    1.0000 </r>
       <r>    5.9382    1.0000 </r>
       <r>    5.9717    1.0000 </r>
       <r>    5.9736    1.0000 </r>
       <r>    6.0295    1.0000 </r>
       <r>    6.0311    1.0000 </r>
       <r>    6.1043    1.0000 </r>
       <r>    6.1058    1.0000 </r>
       <r>    6.2131    1.0000 </r>
       <r>    6.2144    1.0000 </r>
       <r>    6.3335    1.0000 </r>
       <r>    6.3341    1.0000 </r>
       <r>    6.3409    1.0000 </r>
       <r>    6.3409    1.0000 </r>
       <r>    6.4890    1.0000 </r>
       <r>    6.4893    1.0000 </r>
       <r>    6.4983    1.0000 </r>
       <r>    6.4997    1.0000 </r>
       <r>    6.5113    1.0000 </r>
       <r>    6.5116    1.0000 </r>
       <r>    6.6050    1.0000 </r>
       <r>    6.6057    1.0000 </r>
       <r>    6.6380    1.0000 </r>
       <r>    6.6384    1.0000 </r>
       <r>    6.6625    1.0000 </r>
       <r>    6.6644    1.0000 </r>
       <r>    6.7024    1.0000 </r>
       <r>    6.7025    1.0000 </r>
       <r>    6.7374    1.0000 </r>
       <r>    6.7377    1.0000 </r>
       <r>    6.7860    1.0000 </r>
       <r>    6.7883    1.0000 </r>
       <r>    6.7974    1.0000 </r>
       <r>    6.7999    1.0000 </r>
       <r>    6.8535    1.0000 </r>
       <r>    6.8540    1.0000 </r>
       <r>    6.9374    1.0000 </r>
       <r>    6.9381    1.0000 </r>
       <r>    6.9915    1.0000 </r>
       <r>    6.9919    1.0000 </r>
       <r>    7.1163    1.0000 </r>
       <r>    7.1170    1.0000 </r>
       <r>    7.1261    1.0000 </r>
       <r>    7.1272    1.0000 </r>
       <r>    7.1594    1.0000 </r>
       <r>    7.1595    1.0000 </r>
       <r>    7.2331    1.0000 </r>
       <r>    7.2337    1.0000 </r>
       <r>    7.2716    1.0000 </r>
       <r>    7.2732    1.0000 </r>
       <r>    7.3275    1.0000 </r>
       <r>    7.3282    1.0000 </r>
       <r>    7.4763    1.0000 </r>
       <r>    7.4765    1.0000 </r>
       <r>    7.6033    1.0000 </r>
       <r>    7.6047    1.0000 </r>
       <r>    7.6794    1.0000 </r>
       <r>    7.6810    1.0000 </r>
       <r>    7.6822    1.0000 </r>
       <r>    7.6828    1.0000 </r>
       <r>    7.6849    1.0000 </r>
       <r>    7.6856    1.0000 </r>
       <r>    7.7023    1.0000 </r>
       <r>    7.7040    1.0000 </r>
       <r>    7.7530    1.0000 </r>
       <r>    7.7535    1.0000 </r>
       <r>    7.9046    1.0000 </r>
       <r>    7.9050    1.0000 </r>
       <r>    7.9818    1.0000 </r>
       <r>    7.9819    1.0000 </r>
       <r>    8.0479    1.0000 </r>
       <r>    8.0490    1.0000 </r>
       <r>    8.0818    1.0000 </r>
       <r>    8.0822    1.0000 </r>
       <r>    8.1433    1.0000 </r>
       <r>    8.1438    1.0000 </r>
       <r>    8.1545    1.0000 </r>
       <r>    8.1565    1.0000 </r>
       <r>    8.5055    1.0000 </r>
       <r>    8.5057    1.0000 </r>
       <r>    8.5378    1.0000 </r>
       <r>    8.5380    1.0000 </r>
       <r>    8.5753    1.0000 </r>
       <r>    8.5758    1.0000 </r>
       <r>    8.5950    1.0000 </r>
       <r>    8.5952    1.0000 </r>
       <r>    8.6185    1.0000 </r>
       <r>    8.6187    1.0000 </r>
       <r>    8.6912    1.0000 </r>
       <r>    8.6916    1.0000 </r>
       <r>    8.7818    1.0000 </r>
       <r>    8.7820    1.0000 </r>
       <r>    8.9021    1.0000 </r>
       <r>    8.9032    1.0000 </r>
       <r>    8.9279    0.9999 </r>
       <r>    8.9294    0.9998 </r>
       <r>    8.9536    0.9995 </r>
       <r>    8.9549    0.9994 </r>
       <r>    8.9569    0.9994 </r>
       <r>    8.9579    0.9993 </r>
       <r>    8.9605    0.9992 </r>
       <r>    8.9607    0.9992 </r>
       <r>    8.9832    0.9978 </r>
       <r>    8.9834    0.9978 </r>
       <r>    8.9921    0.9968 </r>
       <r>    8.9924    0.9968 </r>
       <r>    9.0173    0.9911 </r>
       <r>    9.0173    0.9911 </r>
       <r>    9.1279    0.7897 </r>
       <r>    9.1282    0.7886 </r>
       <r>    9.2898    0.0690 </r>
       <r>    9.2906    0.0674 </r>
       <r>    9.2909    0.0669 </r>
       <r>    9.2914    0.0659 </r>
       <r>    9.5565    0.0000 </r>
       <r>    9.5567    0.0000 </r>
       <r>    9.9070    0.0000 </r>
       <r>    9.9077    0.0000 </r>
       <r>   10.4987    0.0000 </r>
       <r>   10.4998    0.0000 </r>
       <r>   10.8272    0.0000 </r>
       <r>   10.8275    0.0000 </r>
       <r>   10.8847    0.0000 </r>
       <r>   10.8868    0.0000 </r>
       <r>   12.0845    0.0000 </r>
       <r>   12.0849    0.0000 </r>
       <r>   12.9709    0.0000 </r>
       <r>   12.9712    0.0000 </r>
       <r>   13.2302    0.0000 </r>
       <r>   13.2308    0.0000 </r>
       <r>   13.7582    0.0000 </r>
       <r>   13.7604    0.0000 </r>
       <r>   13.8976    0.0000 </r>
       <r>   13.8977    0.0000 </r>
       <r>   14.7703    0.0000 </r>
       <r>   14.7725    0.0000 </r>
       <r>   15.0049    0.0000 </r>
       <r>   15.0054    0.0000 </r>
       <r>   15.6807    0.0000 </r>
       <r>   15.6815    0.0000 </r>
       <r>   16.4879    0.0000 </r>
       <r>   16.4882    0.0000 </r>
       <r>   16.9227    0.0000 </r>
       <r>   16.9231    0.0000 </r>
       <r>   17.1443    0.0000 </r>
       <r>   17.1452    0.0000 </r>
       <r>   17.3347    0.0000 </r>
       <r>   17.3354    0.0000 </r>
       <r>   18.0240    0.0000 </r>
       <r>   18.0245    0.0000 </r>
       <r>   18.5048    0.0000 </r>
       <r>   18.5056    0.0000 </r>
       <r>   18.9177    0.0000 </r>
       <r>   18.9183    0.0000 </r>
       <r>   19.6856    0.0000 </r>
       <r>   19.6861    0.0000 </r>
       <r>   19.7944    0.0000 </r>
       <r>   19.7951    0.0000 </r>
       <r>   20.0738    0.0000 </r>
      </set>
      <set comment="kpoint 3">
       <r>  -40.7484    1.0000 </r>
       <r>  -40.7475    1.0000 </r>
       <r>  -40.7330    1.0000 </r>
       <r>  -40.7324    1.0000 </r>
       <r>  -40.7268    1.0000 </r>
       <r>  -40.7233    1.0000 </r>
       <r>  -40.7222    1.0000 </r>
       <r>  -40.7186    1.0000 </r>
       <r>  -40.7163    1.0000 </r>
       <r>  -40.7134    1.0000 </r>
       <r>  -40.7116    1.0000 </r>
       <r>  -40.7061    1.0000 </r>
       <r>  -40.7032    1.0000 </r>
       <r>  -40.6993    1.0000 </r>
       <r>  -40.6986    1.0000 </r>
       <r>  -40.6940    1.0000 </r>
       <r>  -40.6937    1.0000 </r>
       <r>  -40.6930    1.0000 </r>
       <r>  -40.6913    1.0000 </r>
       <r>  -40.6835    1.0000 </r>
       <r>  -40.6816    1.0000 </r>
       <r>  -40.6771    1.0000 </r>
       <r>  -40.6763    1.0000 </r>
       <r>  -40.6685    1.0000 </r>
       <r>  -40.6674    1.0000 </r>
       <r>  -40.6555    1.0000 </r>
       <r>  -40.6357    1.0000 </r>
       <r>  -40.6326    1.0000 </r>
       <r>  -40.6258    1.0000 </r>
       <r>  -40.6088    1.0000 </r>
       <r>  -40.6035    1.0000 </r>
       <r>  -40.6007    1.0000 </r>
       <r>  -40.5979    1.0000 </r>
       <r>  -40.5978    1.0000 </r>
       <r>  -40.5953    1.0000 </r>
       <r>  -40.5900    1.0000 </r>
       <r>  -40.5831    1.0000 </r>
       <r>  -40.5786    1.0000 </r>
       <r>  -40.5764    1.0000 </r>
       <r>  -40.5694    1.0000 </r>
       <r>  -40.5688    1.0000 </r>
       <r>  -40.5654    1.0000 </r>
       <r>  -40.5443    1.0000 </r>
       <r>  -40.5392    1.0000 </r>
       <r>  -40.5358    1.0000 </r>
       <r>  -40.5324    1.0000 </r>
       <r>  -40.5318    1.0000 </r>
       <r>  -40.5312    1.0000 </r>
       <r>  -40.5302    1.0000 </r>
       <r>  -40.5301    1.0000 </r>
       <r>  -40.5254    1.0000 </r>
       <r>  -40.5218    1.0000 </r>
       <r>  -40.5174    1.0000 </r>
       <r>  -40.5167    1.0000 </r>
       <r>  -40.5159    1.0000 </r>
       <r>  -40.5142    1.0000 </r>
       <r>  -40.5132    1.0000 </r>
       <r>  -40.5102    1.0000 </r>
       <r>  -40.5097    1.0000 </r>
       <r>  -40.5056    1.0000 </r>
       <r>  -40.5054    1.0000 </r>
       <r>  -40.5031    1.0000 </r>
       <r>  -40.5010    1.0000 </r>
       <r>  -40.4995    1.0000 </r>
       <r>  -40.4991    1.0000 </r>
       <r>  -40.4973    1.0000 </r>
       <r>  -40.4939    1.0000 </r>
       <r>  -40.4888    1.0000 </r>
       <r>  -40.4880    1.0000 </r>
       <r>  -40.4873    1.0000 </r>
       <r>  -40.4839    1.0000 </r>
       <r>  -40.4808    1.0000 </r>
       <r>  -40.4797    1.0000 </r>
       <r>  -40.4745    1.0000 </r>
       <r>  -40.4742    1.0000 </r>
       <r>  -40.4734    1.0000 </r>
       <r>  -40.4731    1.0000 </r>
       <r>  -40.4728    1.0000 </r>
       <r>  -40.4714    1.0000 </r>
       <r>  -40.4711    1.0000 </r>
       <r>  -40.4670    1.0000 </r>
       <r>  -40.4667    1.0000 </r>
       <r>  -40.4648    1.0000 </r>
       <r>  -40.4647    1.0000 </r>
       <r>  -40.4605    1.0000 </r>
       <r>  -40.4569    1.0000 </r>
       <r>  -40.4507    1.0000 </r>
       <r>  -40.4467    1.0000 </r>
       <r>  -40.4434    1.0000 </r>
       <r>  -40.4377    1.0000 </r>
       <r>  -40.4333    1.0000 </r>
       <r>  -40.4329    1.0000 </r>
       <r>  -40.4310    1.0000 </r>
       <r>  -40.4253    1.0000 </r>
       <r>  -40.4191    1.0000 </r>
       <r>  -40.4121    1.0000 </r>
       <r>    2.9537    1.0000 </r>
       <r>    3.3842    1.0000 </r>
       <r>    4.1048    1.0000 </r>
       <r>    4.2744    1.0000 </r>
       <r>    4.3769    1.0000 </r>
       <r>    4.3894    1.0000 </r>
       <r>    4.3970    1.0000 </r>
       <r>    4.4240    1.0000 </r>
       <r>    4.4282    1.0000 </r>
       <r>    4.4548    1.0000 </r>
       <r>    4.4569    1.0000 </r>
       <r>    4.5445    1.0000 </r>
       <r>    4.5586    1.0000 </r>
       <r>    4.5675    1.0000 </r>
       <r>    4.5925    1.0000 </r>
       <r>    4.6144    1.0000 </r>
       <r>    4.6238    1.0000 </r>
       <r>    4.6712    1.0000 </r>
       <r>    4.6746    1.0000 </r>
       <r>    4.6830    1.0000 </r>
       <r>    4.7409    1.0000 </r>
       <r>    4.7802    1.0000 </r>
       <r>    4.7872    1.0000 </r>
       <r>    4.8132    1.0000 </r>
       <r>    4.8512    1.0000 </r>
       <r>    4.8559    1.0000 </r>
       <r>    4.8743    1.0000 </r>
       <r>    4.9445    1.0000 </r>
       <r>    4.9602    1.0000 </r>
       <r>    5.0198    1.0000 </r>
       <r>    5.0271    1.0000 </r>
       <r>    5.0623    1.0000 </r>
       <r>    5.1003    1.0000 </r>
       <r>    5.1645    1.0000 </r>
       <r>    5.1768    1.0000 </r>
       <r>    5.1809    1.0000 </r>
       <r>    5.2456    1.0000 </r>
       <r>    5.2585    1.0000 </r>
       <r>    5.2665    1.0000 </r>
       <r>    5.3734    1.0000 </r>
       <r>    5.4600    1.0000 </r>
       <r>    5.4947    1.0000 </r>
       <r>    5.5219    1.0000 </r>
       <r>    5.5282    1.0000 </r>
       <r>    5.5340    1.0000 </r>
       <r>    5.5761    1.0000 </r>
       <r>    5.6400    1.0000 </r>
       <r>    5.6925    1.0000 </r>
       <r>    5.6970    1.0000 </r>
       <r>    5.8210    1.0000 </r>
       <r>    5.8227    1.0000 </r>
       <r>    5.8610    1.0000 </r>
       <r>    5.8898    1.0000 </r>
       <r>    5.9098    1.0000 </r>
       <r>    5.9759    1.0000 </r>
       <r>    6.0010    1.0000 </r>
       <r>    6.0432    1.0000 </r>
       <r>    6.0600    1.0000 </r>
       <r>    6.0917    1.0000 </r>
       <r>    6.1867    1.0000 </r>
       <r>    6.1988    1.0000 </r>
       <r>    6.2306    1.0000 </r>
       <r>    6.2441    1.0000 </r>
       <r>    6.3261    1.0000 </r>
       <r>    6.3495    1.0000 </r>
       <r>    6.3785    1.0000 </r>
       <r>    6.4212    1.0000 </r>
       <r>    6.4455    1.0000 </r>
       <r>    6.4558    1.0000 </r>
       <r>    6.4661    1.0000 </r>
       <r>    6.4956    1.0000 </r>
       <r>    6.5524    1.0000 </r>
       <r>    6.5643    1.0000 </r>
       <r>    6.6069    1.0000 </r>
       <r>    6.6330    1.0000 </r>
       <r>    6.6549    1.0000 </r>
       <r>    6.6635    1.0000 </r>
       <r>    6.7065    1.0000 </r>
       <r>    6.7082    1.0000 </r>
       <r>    6.7093    1.0000 </r>
       <r>    6.7228    1.0000 </r>
       <r>    6.7659    1.0000 </r>
       <r>    6.7763    1.0000 </r>
       <r>    6.7815    1.0000 </r>
       <r>    6.7838    1.0000 </r>
       <r>    6.8537    1.0000 </r>
       <r>    6.8572    1.0000 </r>
       <r>    6.8676    1.0000 </r>
       <r>    6.8720    1.0000 </r>
       <r>    6.8746    1.0000 </r>
       <r>    6.8943    1.0000 </r>
       <r>    7.0073    1.0000 </r>
       <r>    7.0596    1.0000 </r>
       <r>    7.0917    1.0000 </r>
       <r>    7.0930    1.0000 </r>
       <r>    7.1222    1.0000 </r>
       <r>    7.1277    1.0000 </r>
       <r>    7.1359    1.0000 </r>
       <r>    7.1503    1.0000 </r>
       <r>    7.1848    1.0000 </r>
       <r>    7.2792    1.0000 </r>
       <r>    7.3694    1.0000 </r>
       <r>    7.4019    1.0000 </r>
       <r>    7.4302    1.0000 </r>
       <r>    7.4431    1.0000 </r>
       <r>    7.4847    1.0000 </r>
       <r>    7.5217    1.0000 </r>
       <r>    7.5822    1.0000 </r>
       <r>    7.6357    1.0000 </r>
       <r>    7.6464    1.0000 </r>
       <r>    7.6581    1.0000 </r>
       <r>    7.6861    1.0000 </r>
       <r>    7.7185    1.0000 </r>
       <r>    7.7768    1.0000 </r>
       <r>    7.7805    1.0000 </r>
       <r>    7.8164    1.0000 </r>
       <r>    7.8297    1.0000 </r>
       <r>    7.8310    1.0000 </r>
       <r>    7.9266    1.0000 </r>
       <r>    7.9354    1.0000 </r>
       <r>    7.9835    1.0000 </r>
       <r>    7.9843    1.0000 </r>
       <r>    8.0037    1.0000 </r>
       <r>    8.0208    1.0000 </r>
       <r>    8.0817    1.0000 </r>
       <r>    8.0930    1.0000 </r>
       <r>    8.1316    1.0000 </r>
       <r>    8.1905    1.0000 </r>
       <r>    8.2281    1.0000 </r>
       <r>    8.2509    1.0000 </r>
       <r>    8.3632    1.0000 </r>
       <r>    8.3717    1.0000 </r>
       <r>    8.4207    1.0000 </r>
       <r>    8.4557    1.0000 </r>
       <r>    8.5501    1.0000 </r>
       <r>    8.6088    1.0000 </r>
       <r>    8.6135    1.0000 </r>
       <r>    8.6296    1.0000 </r>
       <r>    8.6985    1.0000 </r>
       <r>    8.7045    1.0000 </r>
       <r>    8.7088    1.0000 </r>
       <r>    8.7225    1.0000 </r>
       <r>    8.7538    1.0000 </r>
       <r>    8.7735    1.0000 </r>
       <r>    8.7991    1.0000 </r>
       <r>    8.8097    1.0000 </r>
       <r>    8.8120    1.0000 </r>
       <r>    8.8579    1.0000 </r>
       <r>    8.8614    1.0000 </r>
       <r>    8.8831    1.0000 </r>
       <r>    8.8847    1.0000 </r>
       <r>    8.9862    0.9975 </r>
       <r>    9.0386    0.9807 </r>
       <r>    9.0398    0.9799 </r>
       <r>    9.0417    0.9785 </r>
       <r>    9.0462    0.9751 </r>
       <r>    9.0476    0.9739 </r>
       <r>    9.0617    0.9592 </r>
       <r>    9.0754    0.9392 </r>
       <r>    9.0775    0.9355 </r>
       <r>    9.2040    0.3936 </r>
       <r>    9.2605    0.1425 </r>
       <r>    9.2793    0.0908 </r>
       <r>    9.2819    0.0851 </r>
       <r>    9.3044    0.0455 </r>
       <r>    9.3067    0.0425 </r>
       <r>    9.4434    0.0001 </r>
       <r>    9.5895    0.0000 </r>
       <r>    9.6650    0.0000 </r>
       <r>   10.1425    0.0000 </r>
       <r>   10.2325    0.0000 </r>
       <r>   10.3585    0.0000 </r>
       <r>   10.8122    0.0000 </r>
       <r>   10.8523    0.0000 </r>
       <r>   10.8615    0.0000 </r>
       <r>   11.4368    0.0000 </r>
       <r>   12.0096    0.0000 </r>
       <r>   12.1294    0.0000 </r>
       <r>   12.6443    0.0000 </r>
       <r>   12.6500    0.0000 </r>
       <r>   13.1901    0.0000 </r>
       <r>   13.2789    0.0000 </r>
       <r>   13.3175    0.0000 </r>
       <r>   13.8473    0.0000 </r>
       <r>   14.2124    0.0000 </r>
       <r>   14.3223    0.0000 </r>
       <r>   14.4335    0.0000 </r>
       <r>   14.5482    0.0000 </r>
       <r>   15.1189    0.0000 </r>
       <r>   15.2413    0.0000 </r>
       <r>   15.5575    0.0000 </r>
       <r>   16.2393    0.0000 </r>
       <r>   16.3245    0.0000 </r>
       <r>   16.7335    0.0000 </r>
       <r>   16.8108    0.0000 </r>
       <r>   16.8672    0.0000 </r>
       <r>   16.9217    0.0000 </r>
       <r>   17.1996    0.0000 </r>
       <r>   17.4926    0.0000 </r>
       <r>   17.7438    0.0000 </r>
       <r>   17.8349    0.0000 </r>
       <r>   18.0021    0.0000 </r>
       <r>   18.3378    0.0000 </r>
       <r>   18.5031    0.0000 </r>
       <r>   19.0575    0.0000 </r>
       <r>   19.2604    0.0000 </r>
       <r>   19.3186    0.0000 </r>
       <r>   19.3958    0.0000 </r>
       <r>   19.7101    0.0000 </r>
       <r>   20.0069    0.0000 </r>
       <r>   20.1957    0.0000 </r>
      </set>
      <set comment="kpoint 4">
       <r>  -40.7536    1.0000 </r>
       <r>  -40.7536    1.0000 </r>
       <r>  -40.7373    1.0000 </r>
       <r>  -40.7373    1.0000 </r>
       <r>  -40.7343    1.0000 </r>
       <r>  -40.7302    1.0000 </r>
       <r>  -40.7260    1.0000 </r>
       <r>  -40.7259    1.0000 </r>
       <r>  -40.7227    1.0000 </r>
       <r>  -40.7159    1.0000 </r>
       <r>  -40.7159    1.0000 </r>
       <r>  -40.7148    1.0000 </r>
       <r>  -40.7106    1.0000 </r>
       <r>  -40.6911    1.0000 </r>
       <r>  -40.6858    1.0000 </r>
       <r>  -40.6838    1.0000 </r>
       <r>  -40.6835    1.0000 </r>
       <r>  -40.6806    1.0000 </r>
       <r>  -40.6804    1.0000 </r>
       <r>  -40.6784    1.0000 </r>
       <r>  -40.6638    1.0000 </r>
       <r>  -40.6591    1.0000 </r>
       <r>  -40.6556    1.0000 </r>
       <r>  -40.6540    1.0000 </r>
       <r>  -40.6421    1.0000 </r>
       <r>  -40.6419    1.0000 </r>
       <r>  -40.6370    1.0000 </r>
       <r>  -40.6353    1.0000 </r>
       <r>  -40.6205    1.0000 </r>
       <r>  -40.6202    1.0000 </r>
       <r>  -40.6179    1.0000 </r>
       <r>  -40.6176    1.0000 </r>
       <r>  -40.6138    1.0000 </r>
       <r>  -40.6074    1.0000 </r>
       <r>  -40.6062    1.0000 </r>
       <r>  -40.6058    1.0000 </r>
       <r>  -40.5983    1.0000 </r>
       <r>  -40.5913    1.0000 </r>
       <r>  -40.5895    1.0000 </r>
       <r>  -40.5855    1.0000 </r>
       <r>  -40.5667    1.0000 </r>
       <r>  -40.5658    1.0000 </r>
       <r>  -40.5449    1.0000 </r>
       <r>  -40.5435    1.0000 </r>
       <r>  -40.5433    1.0000 </r>
       <r>  -40.5386    1.0000 </r>
       <r>  -40.5326    1.0000 </r>
       <r>  -40.5263    1.0000 </r>
       <r>  -40.5261    1.0000 </r>
       <r>  -40.5251    1.0000 </r>
       <r>  -40.5250    1.0000 </r>
       <r>  -40.5197    1.0000 </r>
       <r>  -40.5165    1.0000 </r>
       <r>  -40.5147    1.0000 </r>
       <r>  -40.5146    1.0000 </r>
       <r>  -40.5130    1.0000 </r>
       <r>  -40.5085    1.0000 </r>
       <r>  -40.5079    1.0000 </r>
       <r>  -40.5011    1.0000 </r>
       <r>  -40.5008    1.0000 </r>
       <r>  -40.4989    1.0000 </r>
       <r>  -40.4987    1.0000 </r>
       <r>  -40.4977    1.0000 </r>
       <r>  -40.4953    1.0000 </r>
       <r>  -40.4951    1.0000 </r>
       <r>  -40.4947    1.0000 </r>
       <r>  -40.4936    1.0000 </r>
       <r>  -40.4935    1.0000 </r>
       <r>  -40.4904    1.0000 </r>
       <r>  -40.4867    1.0000 </r>
       <r>  -40.4864    1.0000 </r>
       <r>  -40.4849    1.0000 </r>
       <r>  -40.4810    1.0000 </r>
       <r>  -40.4809    1.0000 </r>
       <r>  -40.4791    1.0000 </r>
       <r>  -40.4765    1.0000 </r>
       <r>  -40.4635    1.0000 </r>
       <r>  -40.4634    1.0000 </r>
       <r>  -40.4631    1.0000 </r>
       <r>  -40.4627    1.0000 </r>
       <r>  -40.4625    1.0000 </r>
       <r>  -40.4602    1.0000 </r>
       <r>  -40.4601    1.0000 </r>
       <r>  -40.4540    1.0000 </r>
       <r>  -40.4540    1.0000 </r>
       <r>  -40.4533    1.0000 </r>
       <r>  -40.4533    1.0000 </r>
       <r>  -40.4520    1.0000 </r>
       <r>  -40.4519    1.0000 </r>
       <r>  -40.4468    1.0000 </r>
       <r>  -40.4423    1.0000 </r>
       <r>  -40.4405    1.0000 </r>
       <r>  -40.4339    1.0000 </r>
       <r>  -40.4230    1.0000 </r>
       <r>  -40.4208    1.0000 </r>
       <r>  -40.4150    1.0000 </r>
       <r>    2.7872    1.0000 </r>
       <r>    3.2350    1.0000 </r>
       <r>    4.2671    1.0000 </r>
       <r>    4.3347    1.0000 </r>
       <r>    4.3461    1.0000 </r>
       <r>    4.3465    1.0000 </r>
       <r>    4.3490    1.0000 </r>
       <r>    4.4363    1.0000 </r>
       <r>    4.4527    1.0000 </r>
       <r>    4.4530    1.0000 </r>
       <r>    4.4580    1.0000 </r>
       <r>    4.5070    1.0000 </r>
       <r>    4.5862    1.0000 </r>
       <r>    4.5942    1.0000 </r>
       <r>    4.5954    1.0000 </r>
       <r>    4.5960    1.0000 </r>
       <r>    4.6069    1.0000 </r>
       <r>    4.6210    1.0000 </r>
       <r>    4.6821    1.0000 </r>
       <r>    4.7196    1.0000 </r>
       <r>    4.7199    1.0000 </r>
       <r>    4.7320    1.0000 </r>
       <r>    4.7324    1.0000 </r>
       <r>    4.7411    1.0000 </r>
       <r>    4.8721    1.0000 </r>
       <r>    4.8987    1.0000 </r>
       <r>    4.9021    1.0000 </r>
       <r>    4.9276    1.0000 </r>
       <r>    4.9277    1.0000 </r>
       <r>    5.1470    1.0000 </r>
       <r>    5.2008    1.0000 </r>
       <r>    5.2304    1.0000 </r>
       <r>    5.2568    1.0000 </r>
       <r>    5.2791    1.0000 </r>
       <r>    5.3188    1.0000 </r>
       <r>    5.3188    1.0000 </r>
       <r>    5.4208    1.0000 </r>
       <r>    5.4376    1.0000 </r>
       <r>    5.4379    1.0000 </r>
       <r>    5.5038    1.0000 </r>
       <r>    5.5064    1.0000 </r>
       <r>    5.5378    1.0000 </r>
       <r>    5.6053    1.0000 </r>
       <r>    5.6371    1.0000 </r>
       <r>    5.6585    1.0000 </r>
       <r>    5.6661    1.0000 </r>
       <r>    5.6662    1.0000 </r>
       <r>    5.6757    1.0000 </r>
       <r>    5.6763    1.0000 </r>
       <r>    5.6911    1.0000 </r>
       <r>    5.6917    1.0000 </r>
       <r>    5.6990    1.0000 </r>
       <r>    5.7012    1.0000 </r>
       <r>    5.8116    1.0000 </r>
       <r>    5.8858    1.0000 </r>
       <r>    5.9785    1.0000 </r>
       <r>    6.0787    1.0000 </r>
       <r>    6.0870    1.0000 </r>
       <r>    6.0874    1.0000 </r>
       <r>    6.1176    1.0000 </r>
       <r>    6.1186    1.0000 </r>
       <r>    6.1738    1.0000 </r>
       <r>    6.1749    1.0000 </r>
       <r>    6.1993    1.0000 </r>
       <r>    6.1996    1.0000 </r>
       <r>    6.2033    1.0000 </r>
       <r>    6.2784    1.0000 </r>
       <r>    6.2882    1.0000 </r>
       <r>    6.2895    1.0000 </r>
       <r>    6.3328    1.0000 </r>
       <r>    6.3381    1.0000 </r>
       <r>    6.3539    1.0000 </r>
       <r>    6.3550    1.0000 </r>
       <r>    6.4121    1.0000 </r>
       <r>    6.4146    1.0000 </r>
       <r>    6.5636    1.0000 </r>
       <r>    6.6301    1.0000 </r>
       <r>    6.6329    1.0000 </r>
       <r>    6.6426    1.0000 </r>
       <r>    6.6431    1.0000 </r>
       <r>    6.6903    1.0000 </r>
       <r>    6.6964    1.0000 </r>
       <r>    6.7021    1.0000 </r>
       <r>    6.7041    1.0000 </r>
       <r>    6.7258    1.0000 </r>
       <r>    6.7263    1.0000 </r>
       <r>    6.8294    1.0000 </r>
       <r>    6.8303    1.0000 </r>
       <r>    6.8952    1.0000 </r>
       <r>    6.9049    1.0000 </r>
       <r>    6.9333    1.0000 </r>
       <r>    6.9337    1.0000 </r>
       <r>    7.1885    1.0000 </r>
       <r>    7.1895    1.0000 </r>
       <r>    7.2117    1.0000 </r>
       <r>    7.2127    1.0000 </r>
       <r>    7.4328    1.0000 </r>
       <r>    7.4492    1.0000 </r>
       <r>    7.4625    1.0000 </r>
       <r>    7.4772    1.0000 </r>
       <r>    7.4784    1.0000 </r>
       <r>    7.4840    1.0000 </r>
       <r>    7.5294    1.0000 </r>
       <r>    7.5311    1.0000 </r>
       <r>    7.5640    1.0000 </r>
       <r>    7.5962    1.0000 </r>
       <r>    7.7349    1.0000 </r>
       <r>    7.7354    1.0000 </r>
       <r>    7.7528    1.0000 </r>
       <r>    7.7586    1.0000 </r>
       <r>    7.7641    1.0000 </r>
       <r>    7.7646    1.0000 </r>
       <r>    7.7916    1.0000 </r>
       <r>    7.8436    1.0000 </r>
       <r>    7.8450    1.0000 </r>
       <r>    7.8611    1.0000 </r>
       <r>    7.8613    1.0000 </r>
       <r>    7.9089    1.0000 </r>
       <r>    7.9263    1.0000 </r>
       <r>    7.9803    1.0000 </r>
       <r>    7.9869    1.0000 </r>
       <r>    7.9946    1.0000 </r>
       <r>    8.0101    1.0000 </r>
       <r>    8.0393    1.0000 </r>
       <r>    8.0402    1.0000 </r>
       <r>    8.1142    1.0000 </r>
       <r>    8.1482    1.0000 </r>
       <r>    8.1727    1.0000 </r>
       <r>    8.1780    1.0000 </r>
       <r>    8.1786    1.0000 </r>
       <r>    8.2137    1.0000 </r>
       <r>    8.2186    1.0000 </r>
       <r>    8.3584    1.0000 </r>
       <r>    8.4430    1.0000 </r>
       <r>    8.4766    1.0000 </r>
       <r>    8.5308    1.0000 </r>
       <r>    8.5321    1.0000 </r>
       <r>    8.6660    1.0000 </r>
       <r>    8.6719    1.0000 </r>
       <r>    8.7084    1.0000 </r>
       <r>    8.7112    1.0000 </r>
       <r>    8.7126    1.0000 </r>
       <r>    8.7325    1.0000 </r>
       <r>    8.7337    1.0000 </r>
       <r>    8.7393    1.0000 </r>
       <r>    8.7478    1.0000 </r>
       <r>    8.7796    1.0000 </r>
       <r>    8.8316    1.0000 </r>
       <r>    8.8325    1.0000 </r>
       <r>    8.8740    1.0000 </r>
       <r>    8.9164    0.9999 </r>
       <r>    8.9458    0.9996 </r>
       <r>    8.9468    0.9996 </r>
       <r>    9.0084    0.9937 </r>
       <r>    9.0173    0.9911 </r>
       <r>    9.0191    0.9905 </r>
       <r>    9.0198    0.9902 </r>
       <r>    9.0241    0.9885 </r>
       <r>    9.0583    0.9632 </r>
       <r>    9.1695    0.5863 </r>
       <r>    9.1702    0.5823 </r>
       <r>    9.3533    0.0086 </r>
       <r>    9.4192    0.0005 </r>
       <r>    9.4208    0.0004 </r>
       <r>    9.4242    0.0004 </r>
       <r>    9.4246    0.0003 </r>
       <r>    9.5969    0.0000 </r>
       <r>    9.7238    0.0000 </r>
       <r>    9.7383    0.0000 </r>
       <r>    9.7389    0.0000 </r>
       <r>   10.2486    0.0000 </r>
       <r>   10.4968    0.0000 </r>
       <r>   10.4977    0.0000 </r>
       <r>   10.6957    0.0000 </r>
       <r>   10.6963    0.0000 </r>
       <r>   10.8051    0.0000 </r>
       <r>   11.6639    0.0000 </r>
       <r>   11.6650    0.0000 </r>
       <r>   11.9132    0.0000 </r>
       <r>   11.9144    0.0000 </r>
       <r>   13.2166    0.0000 </r>
       <r>   13.8356    0.0000 </r>
       <r>   13.8374    0.0000 </r>
       <r>   13.8715    0.0000 </r>
       <r>   14.2644    0.0000 </r>
       <r>   14.4257    0.0000 </r>
       <r>   14.4557    0.0000 </r>
       <r>   14.8653    0.0000 </r>
       <r>   15.0673    0.0000 </r>
       <r>   15.0692    0.0000 </r>
       <r>   15.2848    0.0000 </r>
       <r>   15.6613    0.0000 </r>
       <r>   16.9062    0.0000 </r>
       <r>   16.9064    0.0000 </r>
       <r>   17.8016    0.0000 </r>
       <r>   17.8018    0.0000 </r>
       <r>   17.9616    0.0000 </r>
       <r>   17.9619    0.0000 </r>
       <r>   18.0238    0.0000 </r>
       <r>   18.1352    0.0000 </r>
       <r>   18.1369    0.0000 </r>
       <r>   18.7555    0.0000 </r>
       <r>   18.7564    0.0000 </r>
       <r>   18.7779    0.0000 </r>
       <r>   19.0105    0.0000 </r>
       <r>   19.0106    0.0000 </r>
       <r>   19.2581    0.0000 </r>
       <r>   19.5315    0.0000 </r>
       <r>   19.6198    0.0000 </r>
       <r>   19.8310    0.0000 </r>
       <r>   19.9135    0.0000 </r>
      </set>
      <set comment="kpoint 5">
       <r>  -40.7632    1.0000 </r>
       <r>  -40.7585    1.0000 </r>
       <r>  -40.7560    1.0000 </r>
       <r>  -40.7378    1.0000 </r>
       <r>  -40.7374    1.0000 </r>
       <r>  -40.7357    1.0000 </r>
       <r>  -40.7353    1.0000 </r>
       <r>  -40.7042    1.0000 </r>
       <r>  -40.7031    1.0000 </r>
       <r>  -40.7027    1.0000 </r>
       <r>  -40.7022    1.0000 </r>
       <r>  -40.6947    1.0000 </r>
       <r>  -40.6939    1.0000 </r>
       <r>  -40.6890    1.0000 </r>
       <r>  -40.6859    1.0000 </r>
       <r>  -40.6853    1.0000 </r>
       <r>  -40.6846    1.0000 </r>
       <r>  -40.6840    1.0000 </r>
       <r>  -40.6831    1.0000 </r>
       <r>  -40.6825    1.0000 </r>
       <r>  -40.6819    1.0000 </r>
       <r>  -40.6813    1.0000 </r>
       <r>  -40.6597    1.0000 </r>
       <r>  -40.6591    1.0000 </r>
       <r>  -40.6589    1.0000 </r>
       <r>  -40.6543    1.0000 </r>
       <r>  -40.6347    1.0000 </r>
       <r>  -40.6251    1.0000 </r>
       <r>  -40.6218    1.0000 </r>
       <r>  -40.6205    1.0000 </r>
       <r>  -40.6201    1.0000 </r>
       <r>  -40.6192    1.0000 </r>
       <r>  -40.6172    1.0000 </r>
       <r>  -40.6038    1.0000 </r>
       <r>  -40.6007    1.0000 </r>
       <r>  -40.5844    1.0000 </r>
       <r>  -40.5826    1.0000 </r>
       <r>  -40.5797    1.0000 </r>
       <r>  -40.5664    1.0000 </r>
       <r>  -40.5560    1.0000 </r>
       <r>  -40.5547    1.0000 </r>
       <r>  -40.5531    1.0000 </r>
       <r>  -40.5513    1.0000 </r>
       <r>  -40.5490    1.0000 </r>
       <r>  -40.5459    1.0000 </r>
       <r>  -40.5438    1.0000 </r>
       <r>  -40.5416    1.0000 </r>
       <r>  -40.5382    1.0000 </r>
       <r>  -40.5361    1.0000 </r>
       <r>  -40.5349    1.0000 </r>
       <r>  -40.5333    1.0000 </r>
       <r>  -40.5312    1.0000 </r>
       <r>  -40.5310    1.0000 </r>
       <r>  -40.5305    1.0000 </r>
       <r>  -40.5286    1.0000 </r>
       <r>  -40.5267    1.0000 </r>
       <r>  -40.5224    1.0000 </r>
       <r>  -40.5187    1.0000 </r>
       <r>  -40.5059    1.0000 </r>
       <r>  -40.5031    1.0000 </r>
       <r>  -40.4985    1.0000 </r>
       <r>  -40.4965    1.0000 </r>
       <r>  -40.4960    1.0000 </r>
       <r>  -40.4946    1.0000 </r>
       <r>  -40.4920    1.0000 </r>
       <r>  -40.4889    1.0000 </r>
       <r>  -40.4876    1.0000 </r>
       <r>  -40.4874    1.0000 </r>
       <r>  -40.4873    1.0000 </r>
       <r>  -40.4851    1.0000 </r>
       <r>  -40.4813    1.0000 </r>
       <r>  -40.4781    1.0000 </r>
       <r>  -40.4779    1.0000 </r>
       <r>  -40.4778    1.0000 </r>
       <r>  -40.4726    1.0000 </r>
       <r>  -40.4703    1.0000 </r>
       <r>  -40.4698    1.0000 </r>
       <r>  -40.4682    1.0000 </r>
       <r>  -40.4653    1.0000 </r>
       <r>  -40.4635    1.0000 </r>
       <r>  -40.4626    1.0000 </r>
       <r>  -40.4603    1.0000 </r>
       <r>  -40.4595    1.0000 </r>
       <r>  -40.4570    1.0000 </r>
       <r>  -40.4530    1.0000 </r>
       <r>  -40.4520    1.0000 </r>
       <r>  -40.4502    1.0000 </r>
       <r>  -40.4471    1.0000 </r>
       <r>  -40.4444    1.0000 </r>
       <r>  -40.4436    1.0000 </r>
       <r>  -40.4408    1.0000 </r>
       <r>  -40.4395    1.0000 </r>
       <r>  -40.4386    1.0000 </r>
       <r>  -40.4348    1.0000 </r>
       <r>  -40.4131    1.0000 </r>
       <r>  -40.4076    1.0000 </r>
       <r>    2.6474    1.0000 </r>
       <r>    3.8885    1.0000 </r>
       <r>    3.8904    1.0000 </r>
       <r>    4.1752    1.0000 </r>
       <r>    4.2365    1.0000 </r>
       <r>    4.2385    1.0000 </r>
       <r>    4.2409    1.0000 </r>
       <r>    4.3122    1.0000 </r>
[...]
       <r>    9.0886    0.9134 </r>
       <r>    9.0892    0.9120 </r>
       <r>    9.0914    0.9069 </r>
       <r>    9.0923    0.9048 </r>
       <r>    9.1064    0.8664 </r>
       <r>    9.1069    0.8650 </r>
       <r>    9.2953    0.0591 </r>
       <r>    9.3227    0.0257 </r>
       <r>    9.4415    0.0001 </r>
       <r>    9.4419    0.0001 </r>
       <r>    9.4434    0.0001 </r>
       <r>    9.4439    0.0001 </r>
       <r>    9.6133    0.0000 </r>
       <r>    9.9026    0.0000 </r>
       <r>    9.9031    0.0000 </r>
       <r>   10.2424    0.0000 </r>
       <r>   10.5999    0.0000 </r>
       <r>   10.6010    0.0000 </r>
       <r>   10.9154    0.0000 </r>
       <r>   10.9162    0.0000 </r>
       <r>   10.9726    0.0000 </r>
       <r>   11.3619    0.0000 </r>
       <r>   11.3630    0.0000 </r>
       <r>   11.7237    0.0000 </r>
       <r>   11.7249    0.0000 </r>
       <r>   13.1418    0.0000 </r>
       <r>   13.5489    0.0000 </r>
       <r>   13.5507    0.0000 </r>
       <r>   13.7762    0.0000 </r>
       <r>   13.9551    0.0000 </r>
       <r>   13.9611    0.0000 </r>
       <r>   14.9534    0.0000 </r>
       <r>   15.2946    0.0000 </r>
       <r>   15.3821    0.0000 </r>
       <r>   15.3841    0.0000 </r>
       <r>   15.4964    0.0000 </r>
       <r>   15.7808    0.0000 </r>
       <r>   16.8786    0.0000 </r>
       <r>   16.8789    0.0000 </r>
       <r>   17.5410    0.0000 </r>
       <r>   17.5414    0.0000 </r>
       <r>   18.1312    0.0000 </r>
       <r>   18.2680    0.0000 </r>
       <r>   18.2681    0.0000 </r>
       <r>   18.3086    0.0000 </r>
       <r>   18.3111    0.0000 </r>
       <r>   19.0864    0.0000 </r>
       <r>   19.0864    0.0000 </r>
       <r>   19.2019    0.0000 </r>
       <r>   19.2442    0.0000 </r>
       <r>   19.2724    0.0000 </r>
       <r>   19.2734    0.0000 </r>
       <r>   19.3428    0.0000 </r>
       <r>   19.5890    0.0000 </r>
       <r>   19.6383    0.0000 </r>
       <r>   19.7477    0.0000 </r>
      </set>
     </set>
    </set>
   </array>
  </eigenvalues>
  <separator name="orbital magnetization" >
   <v name="MAGDIPOLOUT">      0.00000000      0.00000000      0.00000000</v>
  </separator>
  <dos>
   <i name="efermi">      9.18486940 </i>
   <total>
    <array>
     <dimension dim="1">gridpoints</dimension>
     <dimension dim="2">spin</dimension>
     <field>energy</field>
     <field>total</field>
     <field>integrated</field>
     <set>
      <set comment="spin 1">
       <r>   -43.8421     0.0000     0.0000 </r>
       <r>   -43.6173     0.0000     0.0000 </r>
       <r>   -43.3924     0.0000     0.0000 </r>
       <r>   -43.1676     0.0000     0.0000 </r>
       <r>   -42.9428     0.0000     0.0000 </r>
       <r>   -42.7180     0.0000     0.0000 </r>
       <r>   -42.4931     0.0000     0.0000 </r>
       <r>   -42.2683     0.0000     0.0000 </r>
       <r>   -42.0435     0.0000     0.0000 </r>
       <r>   -41.8187     0.0000     0.0000 </r>
       <r>   -41.5938     0.0000     0.0000 </r>
       <r>   -41.3690     0.0000     0.0000 </r>
       <r>   -41.1442     0.0000     0.0000 </r>
       <r>   -40.9194     0.5034     0.1132 </r>
       <r>   -40.6945   139.0833    31.3824 </r>
       <r>   -40.4697   509.0078   145.8193 </r>
       <r>   -40.2449   204.8756   191.8802 </r>
       <r>   -40.0201     0.5330   192.0000 </r>
       <r>   -39.7953     0.0000   192.0000 </r>
       <r>   -39.5704     0.0000   192.0000 </r>
       <r>   -39.3456     0.0000   192.0000 </r>
       <r>   -39.1208     0.0000   192.0000 </r>
       <r>   -38.8960     0.0000   192.0000 </r>
       <r>   -38.6711     0.0000   192.0000 </r>
       <r>   -38.4463     0.0000   192.0000 </r>
       <r>   -38.2215     0.0000   192.0000 </r>
       <r>   -37.9967     0.0000   192.0000 </r>
       <r>   -37.7718     0.0000   192.0000 </r>
       <r>   -37.5470     0.0000   192.0000 </r>
       <r>   -37.3222     0.0000   192.0000 </r>
       <r>   -37.0974     0.0000   192.0000 </r>
       <r>   -36.8725     0.0000   192.0000 </r>
       <r>   -36.6477     0.0000   192.0000 </r>
       <r>   -36.4229     0.0000   192.0000 </r>
       <r>   -36.1981     0.0000   192.0000 </r>
       <r>   -35.9733     0.0000   192.0000 </r>
       <r>   -35.7484     0.0000   192.0000 </r>
       <r>   -35.5236     0.0000   192.0000 </r>
       <r>   -35.2988     0.0000   192.0000 </r>
       <r>   -35.0740     0.0000   192.0000 </r>
       <r>   -34.8491     0.0000   192.0000 </r>
       <r>   -34.6243     0.0000   192.0000 </r>
       <r>   -34.3995     0.0000   192.0000 </r>
       <r>   -34.1747     0.0000   192.0000 </r>
       <r>   -33.9498     0.0000   192.0000 </r>
       <r>   -33.7250     0.0000   192.0000 </r>
       <r>   -33.5002     0.0000   192.0000 </r>
       <r>   -33.2754     0.0000   192.0000 </r>
       <r>   -33.0505     0.0000   192.0000 </r>
       <r>   -32.8257     0.0000   192.0000 </r>
       <r>   -32.6009     0.0000   192.0000 </r>
       <r>   -32.3761     0.0000   192.0000 </r>
       <r>   -32.1512     0.0000   192.0000 </r>
       <r>   -31.9264     0.0000   192.0000 </r>
       <r>   -31.7016     0.0000   192.0000 </r>
       <r>   -31.4768     0.0000   192.0000 </r>
       <r>   -31.2520     0.0000   192.0000 </r>
       <r>   -31.0271     0.0000   192.0000 </r>
       <r>   -30.8023     0.0000   192.0000 </r>
       <r>   -30.5775     0.0000   192.0000 </r>
       <r>   -30.3527     0.0000   192.0000 </r>
       <r>   -30.1278     0.0000   192.0000 </r>
       <r>   -29.9030     0.0000   192.0000 </r>
       <r>   -29.6782     0.0000   192.0000 </r>
       <r>   -29.4534     0.0000   192.0000 </r>
       <r>   -29.2285     0.0000   192.0000 </r>
       <r>   -29.0037     0.0000   192.0000 </r>
       <r>   -28.7789     0.0000   192.0000 </r>
       <r>   -28.5541     0.0000   192.0000 </r>
       <r>   -28.3292     0.0000   192.0000 </r>
       <r>   -28.1044     0.0000   192.0000 </r>
       <r>   -27.8796     0.0000   192.0000 </r>
       <r>   -27.6548     0.0000   192.0000 </r>
       <r>   -27.4300     0.0000   192.0000 </r>
       <r>   -27.2051     0.0000   192.0000 </r>
       <r>   -26.9803     0.0000   192.0000 </r>
       <r>   -26.7555     0.0000   192.0000 </r>
       <r>   -26.5307     0.0000   192.0000 </r>
       <r>   -26.3058     0.0000   192.0000 </r>
       <r>   -26.0810     0.0000   192.0000 </r>
       <r>   -25.8562     0.0000   192.0000 </r>
       <r>   -25.6314     0.0000   192.0000 </r>
       <r>   -25.4065     0.0000   192.0000 </r>
       <r>   -25.1817     0.0000   192.0000 </r>
       <r>   -24.9569     0.0000   192.0000 </r>
       <r>   -24.7321     0.0000   192.0000 </r>
       <r>   -24.5072     0.0000   192.0000 </r>
       <r>   -24.2824     0.0000   192.0000 </r>
       <r>   -24.0576     0.0000   192.0000 </r>
       <r>   -23.8328     0.0000   192.0000 </r>
       <r>   -23.6080     0.0000   192.0000 </r>
       <r>   -23.3831     0.0000   192.0000 </r>
       <r>   -23.1583     0.0000   192.0000 </r>
       <r>   -22.9335     0.0000   192.0000 </r>
       <r>   -22.7087     0.0000   192.0000 </r>
       <r>   -22.4838     0.0000   192.0000 </r>
       <r>   -22.2590     0.0000   192.0000 </r>
       <r>   -22.0342     0.0000   192.0000 </r>
       <r>   -21.8094     0.0000   192.0000 </r>
       <r>   -21.5845     0.0000   192.0000 </r>
       <r>   -21.3597     0.0000   192.0000 </r>
       <r>   -21.1349     0.0000   192.0000 </r>
       <r>   -20.9101     0.0000   192.0000 </r>
       <r>   -20.6852     0.0000   192.0000 </r>
       <r>   -20.4604     0.0000   192.0000 </r>
       <r>   -20.2356     0.0000   192.0000 </r>
       <r>   -20.0108     0.0000   192.0000 </r>
       <r>   -19.7860     0.0000   192.0000 </r>
       <r>   -19.5611     0.0000   192.0000 </r>
       <r>   -19.3363     0.0000   192.0000 </r>
       <r>   -19.1115     0.0000   192.0000 </r>
       <r>   -18.8867     0.0000   192.0000 </r>
       <r>   -18.6618     0.0000   192.0000 </r>
       <r>   -18.4370     0.0000   192.0000 </r>
       <r>   -18.2122     0.0000   192.0000 </r>
       <r>   -17.9874     0.0000   192.0000 </r>
       <r>   -17.7625     0.0000   192.0000 </r>
       <r>   -17.5377     0.0000   192.0000 </r>
       <r>   -17.3129     0.0000   192.0000 </r>
       <r>   -17.0881     0.0000   192.0000 </r>
       <r>   -16.8632     0.0000   192.0000 </r>
       <r>   -16.6384     0.0000   192.0000 </r>
       <r>   -16.4136     0.0000   192.0000 </r>
       <r>   -16.1888     0.0000   192.0000 </r>
       <r>   -15.9640     0.0000   192.0000 </r>
       <r>   -15.7391     0.0000   192.0000 </r>
       <r>   -15.5143     0.0000   192.0000 </r>
       <r>   -15.2895     0.0000   192.0000 </r>
       <r>   -15.0647     0.0000   192.0000 </r>
       <r>   -14.8398     0.0000   192.0000 </r>
       <r>   -14.6150     0.0000   192.0000 </r>
       <r>   -14.3902     0.0000   192.0000 </r>
       <r>   -14.1654     0.0000   192.0000 </r>
       <r>   -13.9405     0.0000   192.0000 </r>
       <r>   -13.7157     0.0000   192.0000 </r>
       <r>   -13.4909     0.0000   192.0000 </r>
       <r>   -13.2661     0.0000   192.0000 </r>
       <r>   -13.0412     0.0000   192.0000 </r>
       <r>   -12.8164     0.0000   192.0000 </r>
       <r>   -12.5916     0.0000   192.0000 </r>
       <r>   -12.3668     0.0000   192.0000 </r>
       <r>   -12.1420     0.0000   192.0000 </r>
       <r>   -11.9171     0.0000   192.0000 </r>
       <r>   -11.6923     0.0000   192.0000 </r>
       <r>   -11.4675     0.0000   192.0000 </r>
       <r>   -11.2427     0.0000   192.0000 </r>
       <r>   -11.0178     0.0000   192.0000 </r>
       <r>   -10.7930     0.0000   192.0000 </r>
       <r>   -10.5682     0.0000   192.0000 </r>
       <r>   -10.3434     0.0000   192.0000 </r>
       <r>   -10.1185     0.0000   192.0000 </r>
       <r>    -9.8937     0.0000   192.0000 </r>
       <r>    -9.6689     0.0000   192.0000 </r>
       <r>    -9.4441     0.0000   192.0000 </r>
       <r>    -9.2192     0.0000   192.0000 </r>
       <r>    -8.9944     0.0000   192.0000 </r>
       <r>    -8.7696     0.0000   192.0000 </r>
       <r>    -8.5448     0.0000   192.0000 </r>
       <r>    -8.3200     0.0000   192.0000 </r>
       <r>    -8.0951     0.0000   192.0000 </r>
       <r>    -7.8703     0.0000   192.0000 </r>
       <r>    -7.6455     0.0000   192.0000 </r>
       <r>    -7.4207     0.0000   192.0000 </r>
       <r>    -7.1958     0.0000   192.0000 </r>
       <r>    -6.9710     0.0000   192.0000 </r>
       <r>    -6.7462     0.0000   192.0000 </r>
       <r>    -6.5214     0.0000   192.0000 </r>
       <r>    -6.2965     0.0000   192.0000 </r>
       <r>    -6.0717     0.0000   192.0000 </r>
       <r>    -5.8469     0.0000   192.0000 </r>
       <r>    -5.6221     0.0000   192.0000 </r>
       <r>    -5.3972     0.0000   192.0000 </r>
       <r>    -5.1724     0.0000   192.0000 </r>
       <r>    -4.9476     0.0000   192.0000 </r>
       <r>    -4.7228     0.0000   192.0000 </r>
       <r>    -4.4980     0.0000   192.0000 </r>
       <r>    -4.2731     0.0000   192.0000 </r>
       <r>    -4.0483     0.0000   192.0000 </r>
       <r>    -3.8235     0.0000   192.0000 </r>
       <r>    -3.5987     0.0000   192.0000 </r>
       <r>    -3.3738     0.0000   192.0000 </r>
       <r>    -3.1490     0.0000   192.0000 </r>
       <r>    -2.9242     0.0000   192.0000 </r>
       <r>    -2.6994     0.0000   192.0000 </r>
       <r>    -2.4745     0.0000   192.0000 </r>
       <r>    -2.2497     0.0000   192.0000 </r>
       <r>    -2.0249     0.0000   192.0000 </r>
       <r>    -1.8001     0.0000   192.0000 </r>
       <r>    -1.5752     0.0000   192.0000 </r>
       <r>    -1.3504     0.0000   192.0000 </r>
       <r>    -1.1256     0.0000   192.0000 </r>
       <r>    -0.9008     0.0000   192.0000 </r>
       <r>    -0.6760     0.0000   192.0000 </r>
       <r>    -0.4511     0.0000   192.0000 </r>
       <r>    -0.2263     0.0000   192.0000 </r>
       <r>    -0.0015     0.0000   192.0000 </r>
       <r>     0.2233     0.0000   192.0000 </r>
       <r>     0.4482     0.0000   192.0000 </r>
       <r>     0.6730     0.0000   192.0000 </r>
       <r>     0.8978     0.0000   192.0000 </r>
       <r>     1.1226     0.0000   192.0000 </r>
       <r>     1.3475     0.0000   192.0000 </r>
       <r>     1.5723     0.0000   192.0000 </r>
       <r>     1.7971     0.0000   192.0000 </r>
       <r>     2.0219     0.0000   192.0000 </r>
       <r>     2.2468     0.0753   192.0169 </r>
       <r>     2.4716     0.7837   192.1931 </r>
       <r>     2.6964     1.4866   192.5274 </r>
       <r>     2.9212     2.0407   192.9861 </r>
       <r>     3.1460     2.5329   193.5556 </r>
       <r>     3.3709     2.9999   194.2300 </r>
       <r>     3.5957     4.0292   195.1359 </r>
       <r>     3.8205     4.1053   196.0589 </r>
       <r>     4.0453     7.4438   197.7324 </r>
       <r>     4.2702    23.5990   203.0380 </r>
       <r>     4.4950    45.3700   213.2383 </r>
       <r>     4.7198    68.1503   228.5601 </r>
       <r>     4.9446    74.9806   245.4175 </r>
       <r>     5.1695    63.5782   259.7113 </r>
       <r>     5.3943    52.2431   271.4568 </r>
       <r>     5.6191    48.1328   282.2782 </r>
       <r>     5.8439    54.7848   294.5951 </r>
       <r>     6.0688    53.9611   306.7269 </r>
       <r>     6.2936    58.4389   319.8653 </r>
       <r>     6.5184    63.0154   334.0327 </r>
       <r>     6.7432    89.7931   354.2203 </r>
       <r>     6.9681    91.7050   374.8377 </r>
       <r>     7.1929    58.1617   387.9138 </r>
       <r>     7.4177    52.6243   399.7450 </r>
       <r>     7.6425    56.6357   412.4781 </r>
       <r>     7.8673    64.6867   427.0211 </r>
       <r>     8.0922    66.9868   442.0814 </r>
       <r>     8.3170    55.8755   454.6435 </r>
       <r>     8.5418    53.1553   466.5940 </r>
       <r>     8.7666    53.9536   478.7241 </r>
       <r>     8.9915    67.7221   493.9496 </r>
       <r>     9.2163    90.7100   514.3434 </r>
       <r>     9.4411    46.7560   524.8552 </r>
       <r>     9.6659    11.9804   527.5487 </r>
       <r>     9.8908     8.8013   529.5274 </r>
       <r>    10.1156     8.3461   531.4038 </r>
       <r>    10.3404     8.0830   533.2211 </r>
       <r>    10.5652     6.1486   534.6034 </r>
       <r>    10.7901     6.6825   536.1058 </r>
       <r>    11.0149    11.3162   538.6499 </r>
       <r>    11.2397     7.6846   540.3776 </r>
       <r>    11.4645     6.2669   541.7866 </r>
       <r>    11.6893     9.5226   543.9275 </r>
       <r>    11.9142     7.1519   545.5354 </r>
       <r>    12.1390     8.3011   547.4017 </r>
       <r>    12.3638     8.2147   549.2485 </r>
       <r>    12.5886     9.3938   551.3605 </r>
       <r>    12.8135     7.6490   553.0802 </r>
       <r>    13.0383     5.9318   554.4138 </r>
       <r>    13.2631     9.1466   556.4702 </r>
       <r>    13.4879    10.1027   558.7415 </r>
       <r>    13.7128     5.8735   560.0620 </r>
       <r>    13.9376     6.7528   561.5802 </r>
       <r>    14.1624     7.1585   563.1896 </r>
       <r>    14.3872     6.8133   564.7214 </r>
       <r>    14.6121     7.1896   566.3378 </r>
       <r>    14.8369     5.6600   567.6103 </r>
       <r>    15.0617     5.2379   568.7879 </r>
       <r>    15.2865     5.4036   570.0027 </r>
       <r>    15.5113     5.3053   571.1955 </r>
       <r>    15.7362     4.3575   572.1751 </r>
       <r>    15.9610     4.3302   573.1487 </r>
       <r>    16.1858     3.4623   573.9271 </r>
       <r>    16.4106    10.8080   576.3570 </r>
       <r>    16.6355    11.5559   578.9550 </r>
       <r>    16.8603    11.6177   581.5670 </r>
       <r>    17.0851    13.6801   584.6426 </r>
       <r>    17.3099    10.0129   586.8937 </r>
       <r>    17.5348     8.6173   588.8311 </r>
       <r>    17.7596     7.0409   590.4140 </r>
       <r>    17.9844    10.5094   592.7768 </r>
       <r>    18.2092    10.0961   595.0466 </r>
       <r>    18.4341     9.2348   597.1228 </r>
       <r>    18.6589     6.4583   598.5748 </r>
       <r>    18.8837     7.6429   600.2931 </r>
       <r>    19.1085     9.4422   602.4159 </r>
       <r>    19.3333     8.3547   604.2942 </r>
       <r>    19.5582     8.8816   606.2910 </r>
       <r>    19.7830    12.0876   609.0086 </r>
       <r>    20.0078    12.4157   611.7999 </r>
       <r>    20.2326     6.0258   613.1547 </r>
       <r>    20.4575     3.2822   613.8926 </r>
       <r>    20.6823     0.4696   613.9982 </r>
       <r>    20.9071     0.0080   614.0000 </r>
       <r>    21.1319     0.0000   614.0000 </r>
       <r>    21.3568     0.0000   614.0000 </r>
       <r>    21.5816     0.0000   614.0000 </r>
       <r>    21.8064     0.0000   614.0000 </r>
       <r>    22.0312     0.0000   614.0000 </r>
       <r>    22.2561     0.0000   614.0000 </r>
       <r>    22.4809     0.0000   614.0000 </r>
       <r>    22.7057     0.0000   614.0000 </r>
       <r>    22.9305     0.0000   614.0000 </r>
       <r>    23.1553     0.0000   614.0000 </r>
       <r>    23.3802     0.0000   614.0000 </r>
       <r>    23.6050     0.0000   614.0000 </r>
      </set>
     </set>
    </array>
   </total>
  </dos>
 </calculation>
 <structure name="finalpos" >
  <crystal>
   <varray name="basis" >
    <v>       7.85400000      -0.00000000      -0.00000000 </v>
    <v>      -0.00000000       7.85400000       0.00000000 </v>
    <v>       0.00000000       0.00000000       7.85400000 </v>
   </varray>
   <i name="volume">    484.47647186 </i>
   <varray name="rec_basis" >
    <v>       0.12732366       0.00000000      -0.00000000 </v>
    <v>       0.00000000       0.12732366      -0.00000000 </v>
    <v>       0.00000000      -0.00000000       0.12732366 </v>
   </varray>
  </crystal>
  <varray name="positions" >
   <v>       0.00127324       0.00000000       0.00000000 </v>
   <v>       0.00000000       0.25000000       0.25000000 </v>
   <v>       0.00000000       0.50000000       0.50000000 </v>
   <v>       0.00000000       0.75000000       0.75000000 </v>
   <v>       0.25000000       0.00000000       0.25000000 </v>
   <v>       0.25000000       0.25000000       0.50000000 </v>
   <v>       0.25000000       0.50000000       0.75000000 </v>
   <v>       0.25000000       0.75000000       0.00000000 </v>
   <v>       0.50000000       0.00000000       0.50000000 </v>
   <v>       0.50000000       0.25000000       0.75000000 </v>
   <v>       0.50000000       0.50000000       0.00000000 </v>
   <v>       0.50000000       0.75000000       0.25000000 </v>
   <v>       0.75000000       0.00000000       0.75000000 </v>
   <v>       0.75000000       0.25000000       0.00000000 </v>
   <v>       0.75000000       0.50000000       0.25000000 </v>
   <v>       0.75000000       0.75000000       0.50000000 </v>
   <v>       0.25000000       0.25000000       0.00000000 </v>
   <v>       0.25000000       0.50000000       0.25000000 </v>
   <v>       0.25000000       0.75000000       0.50000000 </v>
   <v>       0.25000000       0.00000000       0.75000000 </v>
   <v>       0.50000000       0.25000000       0.25000000 </v>
   <v>       0.50000000       0.50000000       0.50000000 </v>
   <v>       0.50000000       0.75000000       0.75000000 </v>
   <v>       0.50000000       0.00000000       0.00000000 </v>
   <v>       0.75000000       0.25000000       0.50000000 </v>
   <v>       0.75000000       0.50000000       0.75000000 </v>
   <v>       0.75000000       0.75000000       0.00000000 </v>
   <v>       0.75000000       0.00000000       0.25000000 </v>
   <v>       0.00000000       0.25000000       0.75000000 </v>
   <v>       0.00000000       0.50000000       0.00000000 </v>
   <v>       0.00000000       0.75000000       0.25000000 </v>
   <v>       0.00000000       0.00000000       0.50000000 </v>
  </varray>
 </structure>
</modeling>
