<?xml version="1.0" encoding="ISO-8859-1"?>
<modeling>
 <generator>
  <i name="program" type="string">vasp </i>
  <i name="version" type="string">5.3.3  </i>
  <i name="subversion" type="string">18Dez12 (build Jun 21 2016 14:15:03) complex                          serial </i>
  <i name="platform" type="string">LinuxIFC </i>
  <i name="date" type="string">2017 10 10 </i>
  <i name="time" type="string">16:16:28 </i>
 </generator>
 <incar>
  <i type="string" name="PREC">a</i>
  <i type="int" name="IALGO">    38</i>
  <i type="logical" name="ADDGRID"> T  </i>
  <i type="int" name="IBRION">    -1</i>
  <i name="EDIFF">      0.00000001</i>
  <i type="int" name="ISYM">     0</i>
  <i name="ENCUT">    500.00000000</i>
  <i type="logical" name="LREAL"> F  </i>
  <i type="int" name="ISMEAR">     0</i>
  <i name="SIGMA">      0.10000000</i>
  <i type="logical" name="LWAVE"> F  </i>
 </incar>
 <kpoints>
  <varray name="kpointlist" >
   <v>       0.05000000       0.08823529       0.10294118 </v>
   <v>       0.15000000       0.08823529       0.60294118 </v>
   <v>       0.25000000       0.08823529       0.10294118 </v>
   <v>       0.35000000       0.08823529       0.60294118 </v>
   <v>       0.45000000       0.08823529       0.10294118 </v>
   <v>       0.55000000       0.08823529       0.60294118 </v>
   <v>       0.65000000       0.08823529       0.10294118 </v>
   <v>       0.75000000       0.08823529       0.60294118 </v>
   <v>       0.85000000       0.08823529       0.10294118 </v>
   <v>       0.95000000       0.08823529       0.60294118 </v>
   <v>       0.05000000       0.11764706       0.72058824 </v>
   <v>       0.15000000       0.11764706       0.22058824 </v>
   <v>       0.25000000       0.11764706       0.72058824 </v>
   <v>       0.35000000       0.11764706       0.22058824 </v>
   <v>       0.45000000       0.11764706       0.72058824 </v>
   <v>       0.55000000       0.11764706       0.22058824 </v>
   <v>       0.65000000       0.11764706       0.72058824 </v>
   <v>       0.75000000       0.11764706       0.22058824 </v>
   <v>       0.85000000       0.11764706       0.72058824 </v>
   <v>       0.95000000       0.11764706       0.22058824 </v>
   <v>       0.05000000       0.14705882       0.33823529 </v>
   <v>       0.15000000       0.14705882       0.83823529 </v>
   <v>       0.25000000       0.14705882       0.33823529 </v>
   <v>       0.35000000       0.14705882       0.83823529 </v>
   <v>       0.45000000       0.14705882       0.33823529 </v>
   <v>       0.55000000       0.14705882       0.83823529 </v>
   <v>       0.65000000       0.14705882       0.33823529 </v>
   <v>       0.75000000       0.14705882       0.83823529 </v>
   <v>       0.85000000       0.14705882       0.33823529 </v>
   <v>       0.95000000       0.14705882       0.83823529 </v>
   <v>       0.05000000       0.17647059       0.95588235 </v>
   <v>       0.15000000       0.17647059       0.45588235 </v>
   <v>       0.25000000       0.17647059       0.95588235 </v>
   <v>       0.35000000       0.17647059       0.45588235 </v>
   <v>       0.45000000       0.17647059       0.95588235 </v>
   <v>       0.55000000       0.17647059       0.45588235 </v>
   <v>       0.65000000       0.17647059       0.95588235 </v>
   <v>       0.75000000       0.17647059       0.45588235 </v>
   <v>       0.85000000       0.17647059       0.95588235 </v>
   <v>       0.95000000       0.17647059       0.45588235 </v>
   <v>       0.05000000       0.20588235       0.57352941 </v>
   <v>       0.15000000       0.20588235       0.07352941 </v>
   <v>       0.25000000       0.20588235       0.57352941 </v>
   <v>       0.35000000       0.20588235       0.07352941 </v>
   <v>       0.45000000       0.20588235       0.57352941 </v>
   <v>       0.55000000       0.20588235       0.07352941 </v>
   <v>       0.65000000       0.20588235       0.57352941 </v>
   <v>       0.75000000       0.20588235       0.07352941 </v>
   <v>       0.85000000       0.20588235       0.57352941 </v>
   <v>       0.95000000       0.20588235       0.07352941 </v>
   <v>       0.05000000       0.23529412       0.19117647 </v>
   <v>       0.15000000       0.23529412       0.69117647 </v>
   <v>       0.25000000       0.23529412       0.19117647 </v>
   <v>       0.35000000       0.23529412       0.69117647 </v>
   <v>       0.45000000       0.23529412       0.19117647 </v>
   <v>       0.55000000       0.23529412       0.69117647 </v>
   <v>       0.65000000       0.23529412       0.19117647 </v>
   <v>       0.75000000       0.23529412       0.69117647 </v>
   <v>       0.85000000       0.23529412       0.19117647 </v>
   <v>       0.95000000       0.23529412       0.69117647 </v>
   <v>       0.05000000       0.26470588       0.80882353 </v>
   <v>       0.15000000       0.26470588       0.30882353 </v>
   <v>       0.25000000       0.26470588       0.80882353 </v>
   <v>       0.35000000       0.26470588       0.30882353 </v>
   <v>       0.45000000       0.26470588       0.80882353 </v>
   <v>       0.55000000       0.26470588       0.30882353 </v>
   <v>       0.65000000       0.26470588       0.80882353 </v>
   <v>       0.75000000       0.26470588       0.30882353 </v>
   <v>       0.85000000       0.26470588       0.80882353 </v>
   <v>       0.95000000       0.26470588       0.30882353 </v>
   <v>       0.05000000       0.29411765       0.42647059 </v>
   <v>       0.15000000       0.29411765       0.92647059 </v>
   <v>       0.25000000       0.29411765       0.42647059 </v>
   <v>       0.35000000       0.29411765       0.92647059 </v>
   <v>       0.45000000       0.29411765       0.42647059 </v>
   <v>       0.55000000       0.29411765       0.92647059 </v>
   <v>       0.65000000       0.29411765       0.42647059 </v>
   <v>       0.75000000       0.29411765       0.92647059 </v>
   <v>       0.85000000       0.29411765       0.42647059 </v>
   <v>       0.95000000       0.29411765       0.92647059 </v>
   <v>       0.05000000       0.32352941       0.04411765 </v>
   <v>       0.15000000       0.32352941       0.54411765 </v>
   <v>       0.25000000       0.32352941       0.04411765 </v>
   <v>       0.35000000       0.32352941       0.54411765 </v>
   <v>       0.45000000       0.32352941       0.04411765 </v>
   <v>       0.55000000       0.32352941       0.54411765 </v>
   <v>       0.65000000       0.32352941       0.04411765 </v>
   <v>       0.75000000       0.32352941       0.54411765 </v>
   <v>       0.85000000       0.32352941       0.04411765 </v>
   <v>       0.95000000       0.32352941       0.54411765 </v>
   <v>       0.05000000       0.35294118       0.66176471 </v>
   <v>       0.15000000       0.35294118       0.16176471 </v>
   <v>       0.25000000       0.35294118       0.66176471 </v>
   <v>       0.35000000       0.35294118       0.16176471 </v>
   <v>       0.45000000       0.35294118       0.66176471 </v>
   <v>       0.55000000       0.35294118       0.16176471 </v>
   <v>       0.65000000       0.35294118       0.66176471 </v>
   <v>       0.75000000       0.35294118       0.16176471 </v>
   <v>       0.85000000       0.35294118       0.66176471 </v>
   <v>       0.95000000       0.35294118       0.16176471 </v>
   <v>       0.05000000       0.38235294       0.27941176 </v>
   <v>       0.15000000       0.38235294       0.77941176 </v>
   <v>       0.25000000       0.38235294       0.27941176 </v>
   <v>       0.35000000       0.38235294       0.77941176 </v>
   <v>       0.45000000       0.38235294       0.27941176 </v>
   <v>       0.55000000       0.38235294       0.77941176 </v>
   <v>       0.65000000       0.38235294       0.27941176 </v>
   <v>       0.75000000       0.38235294       0.77941176 </v>
   <v>       0.85000000       0.38235294       0.27941176 </v>
   <v>       0.95000000       0.38235294       0.77941176 </v>
   <v>       0.05000000       0.41176471       0.89705882 </v>
   <v>       0.15000000       0.41176471       0.39705882 </v>
   <v>       0.25000000       0.41176471       0.89705882 </v>
   <v>       0.35000000       0.41176471       0.39705882 </v>
   <v>       0.45000000       0.41176471       0.89705882 </v>
   <v>       0.55000000       0.41176471       0.39705882 </v>
   <v>       0.65000000       0.41176471       0.89705882 </v>
   <v>       0.75000000       0.41176471       0.39705882 </v>
   <v>       0.85000000       0.41176471       0.89705882 </v>
   <v>       0.95000000       0.41176471       0.39705882 </v>
   <v>       0.05000000       0.44117647       0.51470588 </v>
   <v>       0.15000000       0.44117647       0.01470588 </v>
   <v>       0.25000000       0.44117647       0.51470588 </v>
   <v>       0.35000000       0.44117647       0.01470588 </v>
   <v>       0.45000000       0.44117647       0.51470588 </v>
   <v>       0.55000000       0.44117647       0.01470588 </v>
   <v>       0.65000000       0.44117647       0.51470588 </v>
   <v>       0.75000000       0.44117647       0.01470588 </v>
   <v>       0.85000000       0.44117647       0.51470588 </v>
   <v>       0.95000000       0.44117647       0.01470588 </v>
   <v>       0.05000000       0.47058824       0.13235294 </v>
   <v>       0.15000000       0.47058824       0.63235294 </v>
   <v>       0.25000000       0.47058824       0.13235294 </v>
   <v>       0.35000000       0.47058824       0.63235294 </v>
   <v>       0.45000000       0.47058824       0.13235294 </v>
   <v>       0.55000000       0.47058824       0.63235294 </v>
   <v>       0.65000000       0.47058824       0.13235294 </v>
   <v>       0.75000000       0.47058824       0.63235294 </v>
   <v>       0.85000000       0.47058824       0.13235294 </v>
   <v>       0.95000000       0.47058824       0.63235294 </v>
   <v>       0.05000000       0.50000000       0.75000000 </v>
   <v>       0.15000000       0.50000000       0.25000000 </v>
   <v>       0.25000000       0.50000000       0.75000000 </v>
   <v>       0.35000000       0.50000000       0.25000000 </v>
   <v>       0.45000000       0.50000000       0.75000000 </v>
   <v>       0.05000000       0.94117647       0.01470588 </v>
   <v>       0.15000000       0.94117647       0.51470588 </v>
   <v>       0.25000000       0.94117647       0.01470588 </v>
   <v>       0.35000000       0.94117647       0.51470588 </v>
   <v>       0.45000000       0.94117647       0.01470588 </v>
   <v>       0.55000000       0.94117647       0.51470588 </v>
   <v>       0.65000000       0.94117647       0.01470588 </v>
   <v>       0.75000000       0.94117647       0.51470588 </v>
   <v>       0.85000000       0.94117647       0.01470588 </v>
   <v>       0.95000000       0.94117647       0.51470588 </v>
   <v>       0.05000000       0.97058824       0.63235294 </v>
   <v>       0.15000000       0.97058824       0.13235294 </v>
   <v>       0.25000000       0.97058824       0.63235294 </v>
   <v>       0.35000000       0.97058824       0.13235294 </v>
   <v>       0.45000000       0.97058824       0.63235294 </v>
   <v>       0.55000000       0.97058824       0.13235294 </v>
   <v>       0.65000000       0.97058824       0.63235294 </v>
   <v>       0.75000000       0.97058824       0.13235294 </v>
   <v>       0.85000000       0.97058824       0.63235294 </v>
   <v>       0.95000000       0.97058824       0.13235294 </v>
   <v>       0.05000000       1.00000000       0.25000000 </v>
   <v>       0.15000000       1.00000000       0.75000000 </v>
   <v>       0.25000000       1.00000000       0.25000000 </v>
   <v>       0.35000000       1.00000000       0.75000000 </v>
   <v>       0.45000000       1.00000000       0.25000000 </v>
  </varray>
  <varray name="weights" >
   <v>       0.00588235 </v>
   <v>       0.00588235 </v>
   <v>       0.00588235 </v>
   <v>       0.00588235 </v>
   <v>       0.00588235 </v>
   <v>       0.00588235 </v>
   <v>       0.00588235 </v>
   <v>       0.00588235 </v>
   <v>       0.00588235 </v>
   <v>       0.00588235 </v>
   <v>       0.00588235 </v>
   <v>       0.00588235 </v>
   <v>       0.00588235 </v>
   <v>       0.00588235 </v>
   <v>       0.00588235 </v>
   <v>       0.00588235 </v>
   <v>       0.00588235 </v>
   <v>       0.00588235 </v>
   <v>       0.00588235 </v>
   <v>       0.00588235 </v>
   <v>       0.00588235 </v>
   <v>       0.00588235 </v>
   <v>       0.00588235 </v>
   <v>       0.00588235 </v>
   <v>       0.00588235 </v>
   <v>       0.00588235 </v>
   <v>       0.00588235 </v>
   <v>       0.00588235 </v>
   <v>       0.00588235 </v>
   <v>       0.00588235 </v>
   <v>       0.00588235 </v>
   <v>       0.00588235 </v>
   <v>       0.00588235 </v>
   <v>       0.00588235 </v>
   <v>       0.00588235 </v>
   <v>       0.00588235 </v>
   <v>       0.00588235 </v>
   <v>       0.00588235 </v>
   <v>       0.00588235 </v>
   <v>       0.00588235 </v>
   <v>       0.00588235 </v>
   <v>       0.00588235 </v>
   <v>       0.00588235 </v>
   <v>       0.00588235 </v>
   <v>       0.00588235 </v>
   <v>       0.00588235 </v>
   <v>       0.00588235 </v>
   <v>       0.00588235 </v>
   <v>       0.00588235 </v>
   <v>       0.00588235 </v>
   <v>       0.00588235 </v>
   <v>       0.00588235 </v>
   <v>       0.00588235 </v>
   <v>       0.00588235 </v>
   <v>       0.00588235 </v>
   <v>       0.00588235 </v>
   <v>       0.00588235 </v>
   <v>       0.00588235 </v>
   <v>       0.00588235 </v>
   <v>       0.00588235 </v>
   <v>       0.00588235 </v>
   <v>       0.00588235 </v>
   <v>       0.00588235 </v>
   <v>       0.00588235 </v>
   <v>       0.00588235 </v>
   <v>       0.00588235 </v>
   <v>       0.00588235 </v>
   <v>       0.00588235 </v>
   <v>       0.00588235 </v>
   <v>       0.00588235 </v>
   <v>       0.00588235 </v>
   <v>       0.00588235 </v>
   <v>       0.00588235 </v>
   <v>       0.00588235 </v>
   <v>       0.00588235 </v>
   <v>       0.00588235 </v>
   <v>       0.00588235 </v>
   <v>       0.00588235 </v>
   <v>       0.00588235 </v>
   <v>       0.00588235 </v>
   <v>       0.00588235 </v>
   <v>       0.00588235 </v>
   <v>       0.00588235 </v>
   <v>       0.00588235 </v>
   <v>       0.00588235 </v>
   <v>       0.00588235 </v>
   <v>       0.00588235 </v>
   <v>       0.00588235 </v>
   <v>       0.00588235 </v>
   <v>       0.00588235 </v>
   <v>       0.00588235 </v>
   <v>       0.00588235 </v>
   <v>       0.00588235 </v>
   <v>       0.00588235 </v>
   <v>       0.00588235 </v>
   <v>       0.00588235 </v>
   <v>       0.00588235 </v>
   <v>       0.00588235 </v>
   <v>       0.00588235 </v>
   <v>       0.00588235 </v>
   <v>       0.00588235 </v>
   <v>       0.00588235 </v>
   <v>       0.00588235 </v>
   <v>       0.00588235 </v>
   <v>       0.00588235 </v>
   <v>       0.00588235 </v>
   <v>       0.00588235 </v>
   <v>       0.00588235 </v>
   <v>       0.00588235 </v>
   <v>       0.00588235 </v>
   <v>       0.00588235 </v>
   <v>       0.00588235 </v>
   <v>       0.00588235 </v>
   <v>       0.00588235 </v>
   <v>       0.00588235 </v>
   <v>       0.00588235 </v>
   <v>       0.00588235 </v>
   <v>       0.00588235 </v>
   <v>       0.00588235 </v>
   <v>       0.00588235 </v>
   <v>       0.00588235 </v>
   <v>       0.00588235 </v>
   <v>       0.00588235 </v>
   <v>       0.00588235 </v>
   <v>       0.00588235 </v>
   <v>       0.00588235 </v>
   <v>       0.00588235 </v>
   <v>       0.00588235 </v>
   <v>       0.00588235 </v>
   <v>       0.00588235 </v>
   <v>       0.00588235 </v>
   <v>       0.00588235 </v>
   <v>       0.00588235 </v>
   <v>       0.00588235 </v>
   <v>       0.00588235 </v>
   <v>       0.00588235 </v>
   <v>       0.00588235 </v>
   <v>       0.00588235 </v>
   <v>       0.00588235 </v>
   <v>       0.00588235 </v>
   <v>       0.00588235 </v>
   <v>       0.00588235 </v>
   <v>       0.00588235 </v>
   <v>       0.00588235 </v>
   <v>       0.00588235 </v>
   <v>       0.00588235 </v>
   <v>       0.00588235 </v>
   <v>       0.00588235 </v>
   <v>       0.00588235 </v>
   <v>       0.00588235 </v>
   <v>       0.00588235 </v>
   <v>       0.00588235 </v>
   <v>       0.00588235 </v>
   <v>       0.00588235 </v>
   <v>       0.00588235 </v>
   <v>       0.00588235 </v>
   <v>       0.00588235 </v>
   <v>       0.00588235 </v>
   <v>       0.00588235 </v>
   <v>       0.00588235 </v>
   <v>       0.00588235 </v>
   <v>       0.00588235 </v>
   <v>       0.00588235 </v>
   <v>       0.00588235 </v>
   <v>       0.00588235 </v>
   <v>       0.00588235 </v>
   <v>       0.00588235 </v>
   <v>       0.00588235 </v>
   <v>       0.00588235 </v>
   <v>       0.00588235 </v>
  </varray>
 </kpoints>
 <parameters>
  <separator name="general" >
   <i type="string" name="SYSTEM">unknown system</i>
   <i type="logical" name="LCOMPAT"> F  </i>
  </separator>
  <separator name="electronic" >
   <i type="string" name="PREC">a</i>
   <i name="ENMAX">    500.00000000</i>
   <i name="ENAUG">    473.06700000</i>
   <i name="EDIFF">      0.00000001</i>
   <i type="int" name="IALGO">    38</i>
   <i type="int" name="IWAVPR">     0</i>
   <i type="int" name="NBANDS">    38</i>
   <i name="NELECT">     64.00000000</i>
   <i type="int" name="TURBO">     0</i>
   <i type="int" name="IRESTART">     0</i>
   <i type="int" name="NREBOOT">     0</i>
   <i type="int" name="NMIN">     0</i>
   <i name="EREF">      0.00000000</i>
   <separator name="electronic smearing" >
    <i type="int" name="ISMEAR">     0</i>
    <i name="SIGMA">      0.10000000</i>
    <i name="KSPACING">      0.50000000</i>
    <i type="logical" name="KGAMMA"> T  </i>
   </separator>
   <separator name="electronic projectors" >
    <i type="logical" name="LREAL"> F  </i>
    <v name="ROPT">      0.00000000</v>
    <i type="int" name="LMAXPAW">  -100</i>
    <i type="int" name="LMAXMIX">     2</i>
    <i type="logical" name="NLSPLINE"> F  </i>
   </separator>
   <separator name="electronic startup" >
    <i type="int" name="ISTART">     0</i>
    <i type="int" name="ICHARG">     2</i>
    <i type="int" name="INIWAV">     1</i>
   </separator>
   <separator name="electronic spin" >
    <i type="int" name="ISPIN">     1</i>
    <i type="logical" name="LNONCOLLINEAR"> F  </i>
    <v name="MAGMOM">      1.00000000      1.00000000      1.00000000      1.00000000</v>
    <i name="NUPDOWN">     -1.00000000</i>
    <i type="logical" name="LSORBIT"> F  </i>
    <v name="SAXIS">      0.00000000      0.00000000      1.00000000</v>
    <i type="logical" name="LSPIRAL"> F  </i>
    <v name="QSPIRAL">      0.00000000      0.00000000      0.00000000</v>
    <i type="logical" name="LZEROZ"> F  </i>
   </separator>
   <separator name="electronic exchange-correlation" >
    <i type="logical" name="LASPH"> F  </i>
    <i type="logical" name="LMETAGGA"> F  </i>
   </separator>
   <separator name="electronic convergence" >
    <i type="int" name="NELM">    60</i>
    <i type="int" name="NELMDL">    -5</i>
    <i type="int" name="NELMIN">     2</i>
    <i name="ENINI">    500.00000000</i>
    <separator name="electronic convergence detail" >
     <i type="logical" name="LDIAG"> T  </i>
     <i type="logical" name="LSUBROT"> T  </i>
     <i name="WEIMIN">      0.00000000</i>
     <i name="EBREAK">      0.00000000</i>
     <i name="DEPER">      0.30000000</i>
     <i type="int" name="NRMM">     4</i>
     <i name="TIME">      0.40000000</i>
    </separator>
   </separator>
   <separator name="electronic mixer" >
    <i name="AMIX">      0.40000000</i>
    <i name="BMIX">      1.00000000</i>
    <i name="AMIN">      0.10000000</i>
    <i name="AMIX_MAG">      1.60000000</i>
    <i name="BMIX_MAG">      1.00000000</i>
    <separator name="electronic mixer details" >
     <i type="int" name="IMIX">     4</i>
     <i type="int" name="MAXMIX">   -45</i>
     <i name="WC">    100.00000000</i>
     <i type="int" name="INIMIX">     1</i>
     <i type="int" name="MIXPRE">     1</i>
     <i type="int" name="MREMOVE">     5</i>
    </separator>
   </separator>
   <separator name="electronic dipolcorrection" >
    <i type="logical" name="LDIPOL"> F  </i>
    <i type="logical" name="LMONO"> F  </i>
    <i type="int" name="IDIPOL">     0</i>
    <i name="EPSILON">      1.00000000</i>
    <v name="DIPOL">   -100.00000000   -100.00000000   -100.00000000</v>
    <i name="EFIELD">      0.00000000</i>
   </separator>
  </separator>
  <separator name="grids" >
   <i type="int" name="NGX">    30</i>
   <i type="int" name="NGY">    30</i>
   <i type="int" name="NGZ">    30</i>
   <i type="int" name="NGXF">    60</i>
   <i type="int" name="NGYF">    60</i>
   <i type="int" name="NGZF">    60</i>
   <i type="logical" name="ADDGRID"> T  </i>
  </separator>
  <separator name="ionic" >
   <i type="int" name="NSW">     0</i>
   <i type="int" name="IBRION">    -1</i>
   <i type="int" name="ISIF">     2</i>
   <i name="PSTRESS">      0.00000000</i>
   <i name="EDIFFG">      0.00000010</i>
   <i type="int" name="NFREE">     0</i>
   <i name="POTIM">      0.50000000</i>
   <i name="SMASS">     -3.00000000</i>
   <i name="SCALEE">      1.00000000</i>
  </separator>
  <separator name="ionic md" >
   <i name="TEBEG">      0.00010000</i>
   <i name="TEEND">      0.00010000</i>
   <i type="int" name="NBLOCK">     1</i>
   <i type="int" name="KBLOCK">     1</i>
   <i type="int" name="NPACO">   256</i>
   <i name="APACO">     16.00000000</i>
  </separator>
  <separator name="symmetry" >
   <i type="int" name="ISYM">     0</i>
   <i name="SYMPREC">      0.00001000</i>
  </separator>
  <separator name="dos" >
   <i type="logical" name="LORBIT"> F  </i>
   <v name="RWIGS">     -1.00000000</v>
   <i type="int" name="NEDOS">   301</i>
   <i name="EMIN">     10.00000000</i>
   <i name="EMAX">    -10.00000000</i>
   <i name="EFERMI">      0.00000000</i>
  </separator>
  <separator name="writing" >
   <i type="int" name="NWRITE">     2</i>
   <i type="logical" name="LWAVE"> F  </i>
   <i type="logical" name="LCHARG"> T  </i>
   <i type="logical" name="LPARD"> F  </i>
   <i type="logical" name="LVTOT"> F  </i>
   <i type="logical" name="LVHAR"> F  </i>
   <i type="logical" name="LELF"> F  </i>
   <i type="logical" name="LOPTICS"> F  </i>
   <v name="STM">      0.00000000      0.00000000      0.00000000      0.00000000      0.00000000      0.00000000      0.00000000</v>
  </separator>
  <separator name="performance" >
   <i type="int" name="NPAR">     1</i>
   <i type="int" name="NSIM">     4</i>
   <i type="int" name="NBLK">    -1</i>
   <i type="logical" name="LPLANE"> T  </i>
   <i type="logical" name="LSCALAPACK"> F  </i>
   <i type="logical" name="LSCAAWARE"> F  </i>
   <i type="logical" name="LSCALU"> F  </i>
   <i type="logical" name="LASYNC"> F  </i>
   <i type="logical" name="LORBITALREAL"> F  </i>
  </separator>
  <separator name="miscellaneous" >
   <i type="int" name="IDIOT">     3</i>
   <i type="logical" name="LMUSIC"> F  </i>
   <v name="POMASS">    106.42000000</v>
   <v name="DARWINR">      0.00000000</v>
   <v name="DARWINV">      1.00000000</v>
   <i type="logical" name="LCORR"> T  </i>
  </separator>
  <i type="logical" name="GGA_COMPAT"> T  </i>
  <i type="logical" name="LBERRY"> F  </i>
  <i type="int" name="ICORELEVEL">     0</i>
  <i type="logical" name="LDAU"> F  </i>
  <i type="int" name="I_CONSTRAINED_M">     0</i>
  <separator name="electronic exchange-correlation" >
   <i type="string" name="GGA">--</i>
   <i type="int" name="VOSKOWN">     0</i>
   <i type="logical" name="LHFCALC"> F  </i>
   <i type="string" name="PRECFOCK"></i>
   <i type="logical" name="LSYMGRAD"> F  </i>
   <i type="logical" name="LHFONE"> F  </i>
   <i type="logical" name="LRHFCALC"> F  </i>
   <i type="logical" name="LTHOMAS"> F  </i>
   <i type="logical" name="LMODELHF"> F  </i>
   <i name="ENCUT4O">     -1.00000000</i>
   <i type="int" name="EXXOEP">     0</i>
   <i type="int" name="FOURORBIT">     0</i>
   <i name="AEXX">      0.00000000</i>
   <i name="HFALPHA">      0.00000000</i>
   <i name="MCALPHA">      0.00000000</i>
   <i name="ALDAX">      1.00000000</i>
   <i name="AGGAX">      1.00000000</i>
   <i name="ALDAC">      1.00000000</i>
   <i name="AGGAC">      1.00000000</i>
   <i type="int" name="NKREDX">     1</i>
   <i type="int" name="NKREDY">     1</i>
   <i type="int" name="NKREDZ">     1</i>
   <i type="logical" name="SHIFTRED"> F  </i>
   <i type="logical" name="ODDONLY"> F  </i>
   <i type="logical" name="EVENONLY"> F  </i>
   <i type="int" name="LMAXFOCK">     0</i>
   <i type="int" name="NMAXFOCKAE">     0</i>
   <i type="logical" name="LFOCKAEDFT"> F  </i>
   <i name="HFSCREEN">      0.00000000</i>
   <i name="HFSCREENC">      0.00000000</i>
   <i type="int" name="NBANDSGWLOW">     0</i>
  </separator>
  <separator name="vdW DFT" >
   <i type="logical" name="LUSE_VDW"> F  </i>
   <i name="Zab_VDW">     -0.84910000</i>
   <i name="PARAM1">      0.12340000</i>
   <i name="PARAM2">      1.00000000</i>
   <i name="PARAM3">      0.00000000</i>
  </separator>
  <separator name="model GW" >
   <i type="int" name="MODEL_GW">     0</i>
   <i name="MODEL_EPS0">      9.08393385</i>
   <i name="MODEL_ALPHA">      1.00000000</i>
  </separator>
  <separator name="linear response parameters" >
   <i type="logical" name="LEPSILON"> F  </i>
   <i type="logical" name="LRPA"> F  </i>
   <i type="logical" name="LNABLA"> F  </i>
   <i type="logical" name="LVEL"> F  </i>
   <i type="int" name="KINTER">     0</i>
   <i name="CSHIFT">      0.10000000</i>
   <i name="OMEGAMAX">     -1.00000000</i>
   <i name="DEG_THRESHOLD">      0.00200000</i>
  </separator>
  <separator name="orbital magnetization" >
   <i type="logical" name="NUCIND"> F  </i>
   <v name="MAGPOS">      0.00000000      0.00000000      0.00000000</v>
   <i type="logical" name="LNICSALL"> T  </i>
   <i type="logical" name="ORBITALMAG"> F  </i>
   <i type="logical" name="LMAGBLOCH"> F  </i>
   <i type="logical" name="LCHIMAG"> F  </i>
   <i type="logical" name="LGAUGE"> T  </i>
   <i type="int" name="MAGATOM">     0</i>
   <v name="MAGDIPOL">      0.00000000      0.00000000      0.00000000</v>
   <v name="AVECCONST">      0.00000000      0.00000000      0.00000000</v>
  </separator>
  <separator name="response functions" >
   <i type="logical" name="LADDER"> F  </i>
   <i type="logical" name="LFXC"> F  </i>
   <i type="logical" name="LHARTREE"> T  </i>
   <i type="int" name="IBSE">     0</i>
   <i type="logical" name="LTCTE"> F  </i>
   <i type="logical" name="LTETE"> F  </i>
   <i type="logical" name="LTRIPLET"> F  </i>
   <i type="logical" name="LFXCEPS"> F  </i>
   <i type="logical" name="L2ORDER"> F  </i>
   <i type="logical" name="LUSEW"> F  </i>
   <i name="ENCUTGW">     -2.00000000</i>
   <i name="ENCUTGWSOFT">     -2.00000000</i>
   <i name="ENCUTLF">     -1.00000000</i>
   <i type="int" name="LMAXMP2">    -1</i>
   <i name="SCISSOR">      0.00000000</i>
   <i type="int" name="NOMEGA">     0</i>
   <i type="int" name="NOMEGAR">     0</i>
   <i type="int" name="NBANDSGW">    -1</i>
   <i type="int" name="NBANDSO">    -1</i>
   <i type="int" name="NBANDSV">    -1</i>
   <i type="int" name="NELM">     1</i>
   <i type="int" name="DIM">     3</i>
   <i type="int" name="ANTIRES">     0</i>
   <i name="OMEGAMAX">    -30.00000000</i>
   <i name="OMEGATL">   -200.00000000</i>
   <i type="int" name="OMEGAGRID">     0</i>
   <i name="CSHIFT">     -0.10000000</i>
   <i type="logical" name="SELFENERGY"> F  </i>
   <i type="logical" name="LSPECTRAL"> F  </i>
   <i type="logical" name="ODDONLYGW"> F  </i>
   <i type="logical" name="EVENONLYGW"> F  </i>
   <i type="int" name="NKREDLFX">     1</i>
   <i type="int" name="NKREDLFY">     1</i>
   <i type="int" name="NKREDLFZ">     1</i>
   <i type="int" name="MAXMEM">  1800</i>
   <i type="int" name="TELESCOPE">     0</i>
  </separator>
 </parameters>
 <atominfo>
  <atoms>       4 </atoms>
  <types>       1 </types>
  <array name="atoms" >
   <dimension dim="1">ion</dimension>
   <field type="string">element</field>
   <field type="int">atomtype</field>
   <set>
    <rc><c>Pd</c><c>   1</c></rc>
    <rc><c>Pd</c><c>   1</c></rc>
    <rc><c>Pd</c><c>   1</c></rc>
    <rc><c>Pd</c><c>   1</c></rc>
   </set>
  </array>
  <array name="atomtypes" >
   <dimension dim="1">type</dimension>
   <field type="int">atomspertype</field>
   <field type="string">element</field>
   <field>mass</field>
   <field>valence</field>
   <field type="string">pseudopotential</field>
   <set>
    <rc><c>   4</c><c>Pd</c><c>    106.42000000</c><c>     16.00000000</c><c>  PAW_PBE Pd_pv 28Jan2005               </c></rc>
   </set>
  </array>
 </atominfo>
 <structure name="initialpos" >
  <crystal>
   <varray name="basis" >
    <v>       3.92700000       0.00000000       0.00000000 </v>
    <v>       0.00000000       3.92700000       0.00000000 </v>
    <v>       0.00000000       0.00000000       3.92700000 </v>
   </varray>
   <i name="volume">     60.55955898 </i>
   <varray name="rec_basis" >
    <v>       0.25464731       0.00000000       0.00000000 </v>
    <v>       0.00000000       0.25464731       0.00000000 </v>
    <v>       0.00000000       0.00000000       0.25464731 </v>
   </varray>
  </crystal>
  <varray name="positions" >
   <v>       0.00254647       0.00000000       0.00000000 </v>
   <v>       0.00000000       0.50000000       0.50000000 </v>
   <v>       0.50000000       0.00000000       0.50000000 </v>
   <v>       0.50000000       0.50000000       0.00000000 </v>
  </varray>
 </structure>
 <calculation>
  <scstep>
   <time name="dav">   71.03   71.04</time>
   <time name="total">   71.64   71.64</time>
   <energy>
    <i name="alphaZ">    538.72185181 </i>
    <i name="ewald">  -8607.74679165 </i>
    <i name="hartreedc">  -2237.12837724 </i>
    <i name="XCdc">    331.12609095 </i>
    <i name="pawpsdc">   9031.96127590 </i>
    <i name="pawaedc">  -8916.66826490 </i>
    <i name="eentropy">     -0.00288328 </i>
    <i name="bandstr">    139.44014227 </i>
    <i name="atom">  10486.18329226 </i>
    <i name="e_fr_energy">    765.88633611 </i>
    <i name="e_wo_entrp">    765.88921940 </i>
    <i name="e_0_energy">    765.88777776 </i>
   </energy>
  </scstep>
  <scstep>
   <time name="dav">   71.93   71.93</time>
   <time name="total">   71.96   71.97</time>
   <energy>
    <i name="e_fr_energy">      7.26439388 </i>
    <i name="e_wo_entrp">      7.28858301 </i>
    <i name="e_0_energy">      7.27648844 </i>
   </energy>
  </scstep>
  <scstep>
   <time name="dav">   74.09   74.10</time>
   <time name="total">   74.12   74.13</time>
   <energy>
    <i name="e_fr_energy">    -21.54345211 </i>
    <i name="e_wo_entrp">    -21.49297497 </i>
    <i name="e_0_energy">    -21.51821354 </i>
   </energy>
  </scstep>
  <scstep>
   <time name="dav">   73.99   74.00</time>
   <time name="total">   74.02   74.03</time>
   <energy>
    <i name="e_fr_energy">    -21.88930820 </i>
    <i name="e_wo_entrp">    -21.83848535 </i>
    <i name="e_0_energy">    -21.86389678 </i>
   </energy>
  </scstep>
  <scstep>
   <time name="dav">   74.38   74.39</time>
   <time name="total">   83.08   83.09</time>
   <energy>
    <i name="e_fr_energy">    -21.89447574 </i>
    <i name="e_wo_entrp">    -21.84365965 </i>
    <i name="e_0_energy">    -21.86906769 </i>
   </energy>
  </scstep>
  <scstep>
   <time name="dav">   72.43   72.43</time>
   <time name="total">   81.66   81.67</time>
   <energy>
    <i name="e_fr_energy">    -20.86754745 </i>
    <i name="e_wo_entrp">    -20.81512092 </i>
    <i name="e_0_energy">    -20.84133419 </i>
   </energy>
  </scstep>
  <scstep>
   <time name="dav">   73.70   73.71</time>
   <time name="total">   82.93   82.94</time>
   <energy>
    <i name="e_fr_energy">    -20.85547774 </i>
    <i name="e_wo_entrp">    -20.80322354 </i>
    <i name="e_0_energy">    -20.82935064 </i>
   </energy>
  </scstep>
  <scstep>
   <time name="dav">   74.46   74.47</time>
   <time name="total">   83.68   83.69</time>
   <energy>
    <i name="e_fr_energy">    -20.85056864 </i>
    <i name="e_wo_entrp">    -20.79839219 </i>
    <i name="e_0_energy">    -20.82448042 </i>
   </energy>
  </scstep>
  <scstep>
   <time name="dav">   73.70   73.70</time>
   <time name="total">   82.93   82.94</time>
   <energy>
    <i name="e_fr_energy">    -20.85056719 </i>
    <i name="e_wo_entrp">    -20.79839289 </i>
    <i name="e_0_energy">    -20.82448004 </i>
   </energy>
  </scstep>
  <scstep>
   <time name="dav">   74.91   74.92</time>
   <time name="total">   84.14   84.15</time>
   <energy>
    <i name="e_fr_energy">    -20.85055916 </i>
    <i name="e_wo_entrp">    -20.79838873 </i>
    <i name="e_0_energy">    -20.82447395 </i>
   </energy>
  </scstep>
  <scstep>
   <time name="dav">   73.12   73.13</time>
   <time name="total">   82.35   82.36</time>
   <energy>
    <i name="e_fr_energy">    -20.85055566 </i>
    <i name="e_wo_entrp">    -20.79839066 </i>
    <i name="e_0_energy">    -20.82447316 </i>
   </energy>
  </scstep>
  <scstep>
   <time name="dav">   73.37   73.38</time>
   <time name="total">   82.60   82.61</time>
   <energy>
    <i name="e_fr_energy">    -20.85055331 </i>
    <i name="e_wo_entrp">    -20.79838882 </i>
    <i name="e_0_energy">    -20.82447107 </i>
   </energy>
  </scstep>
  <scstep>
   <time name="dav">   73.20   73.20</time>
   <time name="total">   82.43   82.44</time>
   <energy>
    <i name="e_fr_energy">    -20.85055258 </i>
    <i name="e_wo_entrp">    -20.79838848 </i>
    <i name="e_0_energy">    -20.82447053 </i>
   </energy>
  </scstep>
  <scstep>
   <time name="dav">   53.25   53.25</time>
   <time name="total">   62.47   62.48</time>
   <energy>
    <i name="e_fr_energy">    -20.85055251 </i>
    <i name="e_wo_entrp">    -20.79838846 </i>
    <i name="e_0_energy">    -20.82447049 </i>
   </energy>
  </scstep>
  <scstep>
   <time name="dav">   49.30   49.30</time>
   <time name="total">   58.53   58.54</time>
   <energy>
    <i name="e_fr_energy">    -20.85055247 </i>
    <i name="e_wo_entrp">    -20.79838848 </i>
    <i name="e_0_energy">    -20.82447047 </i>
   </energy>
  </scstep>
  <scstep>
   <time name="dav">   48.48   48.49</time>
   <time name="total">   57.72   69.43</time>
   <energy>
    <i name="e_fr_energy">    -20.85055255 </i>
    <i name="e_wo_entrp">    -20.79838855 </i>
    <i name="e_0_energy">    -20.82447055 </i>
   </energy>
  </scstep>
  <scstep>
   <time name="dav">   48.27   48.27</time>
   <time name="total">   57.50   57.51</time>
   <energy>
    <i name="e_fr_energy">    -20.85055258 </i>
    <i name="e_wo_entrp">    -20.79838858 </i>
    <i name="e_0_energy">    -20.82447058 </i>
   </energy>
  </scstep>
  <scstep>
   <time name="dav">   47.94   47.94</time>
   <time name="total">   48.50   48.52</time>
   <energy>
    <i name="alphaZ">    538.72185181 </i>
    <i name="ewald">  -8607.74679165 </i>
    <i name="hartreedc">  -2165.22009349 </i>
    <i name="XCdc">    327.98315728 </i>
    <i name="pawpsdc">   9567.03077685 </i>
    <i name="pawaedc">  -9461.81186479 </i>
    <i name="eentropy">     -0.05216400 </i>
    <i name="bandstr">   -705.93871685 </i>
    <i name="atom">  10486.18329226 </i>
    <i name="e_fr_energy">    -20.85055258 </i>
    <i name="e_wo_entrp">    -20.79838858 </i>
    <i name="e_0_energy">    -20.82447058 </i>
   </energy>
  </scstep>
  <structure>
   <crystal>
    <varray name="basis" >
     <v>       3.92700000       0.00000000       0.00000000 </v>
     <v>       0.00000000       3.92700000       0.00000000 </v>
     <v>       0.00000000       0.00000000       3.92700000 </v>
    </varray>
    <i name="volume">     60.55955898 </i>
    <varray name="rec_basis" >
     <v>       0.25464731       0.00000000       0.00000000 </v>
     <v>       0.00000000       0.25464731       0.00000000 </v>
     <v>       0.00000000       0.00000000       0.25464731 </v>
    </varray>
   </crystal>
   <varray name="positions" >
    <v>       0.00254647       0.00000000       0.00000000 </v>
    <v>       0.00000000       0.50000000       0.50000000 </v>
    <v>       0.50000000       0.00000000       0.50000000 </v>
    <v>       0.50000000       0.50000000       0.00000000 </v>
   </varray>
  </structure>
  <varray name="forces" >
   <v>      -0.08913079       0.00100458      -0.00099031 </v>
   <v>      -0.00147372      -0.00054436       0.00035927 </v>
   <v>       0.04550460      -0.00024974       0.00012372 </v>
   <v>       0.04509990      -0.00021048       0.00050732 </v>
  </varray>
  <varray name="stress" >
   <v>      22.91956448      -0.14739870       0.33596737 </v>
   <v>      -0.14741620      21.43849443      -0.11224118 </v>
   <v>       0.33601382      -0.11222423      22.67715384 </v>
  </varray>
  <energy>
   <i name="e_fr_energy">    -20.85055258 </i>
   <i name="e_wo_entrp">    -20.82447058 </i>
   <i name="e_0_energy">     -0.05216400 </i>
  </energy>
  <time name="totalsc"> 1356.91 1368.87</time>
  <eigenvalues>
   <array>
    <dimension dim="1">band</dimension>
    <dimension dim="2">kpoint</dimension>
    <dimension dim="3">spin</dimension>
    <field>eigene</field>
    <field>occ</field>
    <set>
     <set comment="spin 1">
      <set comment="kpoint 1">
       <r>  -40.7412    1.0000 </r>
       <r>  -40.7406    1.0000 </r>
       <r>  -40.7378    1.0000 </r>
       <r>  -40.5526    1.0000 </r>
       <r>  -40.5457    1.0000 </r>
       <r>  -40.5428    1.0000 </r>
       <r>  -40.5344    1.0000 </r>
       <r>  -40.5333    1.0000 </r>
       <r>  -40.5329    1.0000 </r>
       <r>  -40.4239    1.0000 </r>
       <r>  -40.4047    1.0000 </r>
       <r>  -40.4007    1.0000 </r>
       <r>    2.4847    1.0000 </r>
       <r>    4.1494    1.0000 </r>
       <r>    4.1536    1.0000 </r>
       <r>    4.1573    1.0000 </r>
       <r>    4.4083    1.0000 </r>
       <r>    4.4157    1.0000 </r>
       <r>    4.4330    1.0000 </r>
       <r>    6.3799    1.0000 </r>
       <r>    6.5475    1.0000 </r>
       <r>    6.5626    1.0000 </r>
       <r>    7.9456    1.0000 </r>
       <r>    8.0120    1.0000 </r>
       <r>    8.8388    1.0000 </r>
       <r>    8.8645    1.0000 </r>
       <r>    8.9133    1.0000 </r>
       <r>    8.9591    0.9996 </r>
       <r>    9.0246    0.9922 </r>
       <r>    9.0375    0.9874 </r>
       <r>    9.3651    0.0083 </r>
       <r>    9.3824    0.0041 </r>
       <r>    9.3951    0.0024 </r>
       <r>   12.4132    0.0000 </r>
       <r>   12.6739    0.0000 </r>
       <r>   13.1865    0.0000 </r>
       <r>   19.8273    0.0000 </r>
       <r>   20.2327    0.0000 </r>
      </set>
      <set comment="kpoint 2">
       <r>  -40.6861    1.0000 </r>
       <r>  -40.6808    1.0000 </r>
       <r>  -40.6493    1.0000 </r>
       <r>  -40.6165    1.0000 </r>
       <r>  -40.6026    1.0000 </r>
       <r>  -40.5576    1.0000 </r>
       <r>  -40.5195    1.0000 </r>
       <r>  -40.5179    1.0000 </r>
       <r>  -40.4991    1.0000 </r>
       <r>  -40.4855    1.0000 </r>
       <r>  -40.4516    1.0000 </r>
       <r>  -40.4383    1.0000 </r>
       <r>    4.0956    1.0000 </r>
       <r>    4.7377    1.0000 </r>
       <r>    4.9986    1.0000 </r>
       <r>    5.0577    1.0000 </r>
       <r>    5.1550    1.0000 </r>
       <r>    5.4208    1.0000 </r>
       <r>    5.4593    1.0000 </r>
       <r>    5.7405    1.0000 </r>
       <r>    6.4895    1.0000 </r>
       <r>    6.5926    1.0000 </r>
       <r>    6.8413    1.0000 </r>
       <r>    7.0850    1.0000 </r>
       <r>    7.1569    1.0000 </r>
       <r>    7.8559    1.0000 </r>
       <r>    7.8704    1.0000 </r>
       <r>    8.0072    1.0000 </r>
       <r>    8.0643    1.0000 </r>
       <r>    8.4928    1.0000 </r>
       <r>    8.8385    1.0000 </r>
       <r>    9.1912    0.5252 </r>
       <r>    9.1943    0.5077 </r>
       <r>    9.4872    0.0000 </r>
       <r>   15.0250    0.0000 </r>
       <r>   16.1880    0.0000 </r>
       <r>   17.1704    0.0000 </r>
       <r>   18.4002    0.0000 </r>
      </set>
      <set comment="kpoint 3">
       <r>  -40.7151    1.0000 </r>
       <r>  -40.7132    1.0000 </r>
       <r>  -40.7013    1.0000 </r>
       <r>  -40.5790    1.0000 </r>
       <r>  -40.5756    1.0000 </r>
       <r>  -40.5286    1.0000 </r>
       <r>  -40.5283    1.0000 </r>
       <r>  -40.5263    1.0000 </r>
       <r>  -40.5145    1.0000 </r>
       <r>  -40.4816    1.0000 </r>
       <r>  -40.4207    1.0000 </r>
       <r>  -40.4139    1.0000 </r>
       <r>    3.1429    1.0000 </r>
       <r>    4.4469    1.0000 </r>
       <r>    4.5120    1.0000 </r>
       <r>    4.5212    1.0000 </r>
       <r>    4.6922    1.0000 </r>
       <r>    4.8338    1.0000 </r>
       <r>    4.8484    1.0000 </r>
       <r>    6.1125    1.0000 </r>
       <r>    6.7875    1.0000 </r>
       <r>    6.7973    1.0000 </r>
       <r>    7.6507    1.0000 </r>
       <r>    7.6682    1.0000 </r>
       <r>    7.7163    1.0000 </r>
       <r>    8.1352    1.0000 </r>
       <r>    8.1477    1.0000 </r>
       <r>    8.4914    1.0000 </r>
       <r>    8.5371    1.0000 </r>
       <r>    8.5572    1.0000 </r>
       <r>    9.1817    0.5781 </r>
       <r>    9.3128    0.0488 </r>
       <r>    9.3136    0.0476 </r>
       <r>   10.8432    0.0000 </r>
       <r>   14.1348    0.0000 </r>
       <r>   14.3770    0.0000 </r>
       <r>   19.3153    0.0000 </r>
       <r>   19.5884    0.0000 </r>
      </set>
      <set comment="kpoint 4">
       <r>  -40.6874    1.0000 </r>
       <r>  -40.6867    1.0000 </r>
       <r>  -40.6771    1.0000 </r>
       <r>  -40.6223    1.0000 </r>
       <r>  -40.6029    1.0000 </r>
       <r>  -40.5574    1.0000 </r>
       <r>  -40.5345    1.0000 </r>
       <r>  -40.4846    1.0000 </r>
       <r>  -40.4824    1.0000 </r>
       <r>  -40.4763    1.0000 </r>
       <r>  -40.4678    1.0000 </r>
       <r>  -40.4303    1.0000 </r>
       <r>    4.6423    1.0000 </r>
       <r>    5.1267    1.0000 </r>
       <r>    5.1363    1.0000 </r>
       <r>    5.2552    1.0000 </r>
       <r>    5.7920    1.0000 </r>
       <r>    5.8245    1.0000 </r>
       <r>    5.8384    1.0000 </r>
       <r>    6.0177    1.0000 </r>
       <r>    6.1474    1.0000 </r>
       <r>    6.1825    1.0000 </r>
       <r>    6.5353    1.0000 </r>
       <r>    6.6326    1.0000 </r>
       <r>    7.1001    1.0000 </r>
       <r>    7.5924    1.0000 </r>
       <r>    7.6457    1.0000 </r>
       <r>    7.7102    1.0000 </r>
       <r>    7.7509    1.0000 </r>
       <r>    8.4963    1.0000 </r>
       <r>    8.6141    1.0000 </r>
       <r>    8.6858    1.0000 </r>
       <r>    9.4277    0.0005 </r>
       <r>   11.1351    0.0000 </r>
       <r>   12.1044    0.0000 </r>
       <r>   14.1307    0.0000 </r>
       <r>   17.8428    0.0000 </r>
       <r>   19.8336    0.0000 </r>
      </set>
      <set comment="kpoint 5">
       <r>  -40.6695    1.0000 </r>
       <r>  -40.6689    1.0000 </r>
       <r>  -40.6251    1.0000 </r>
       <r>  -40.6237    1.0000 </r>
       <r>  -40.6202    1.0000 </r>
       <r>  -40.5725    1.0000 </r>
       <r>  -40.5275    1.0000 </r>
       <r>  -40.5261    1.0000 </r>
       <r>  -40.4822    1.0000 </r>
       <r>  -40.4771    1.0000 </r>
       <r>  -40.4586    1.0000 </r>
       <r>  -40.4536    1.0000 </r>
       <r>    4.3117    1.0000 </r>
       <r>    4.6529    1.0000 </r>
       <r>    5.1115    1.0000 </r>
       <r>    5.1177    1.0000 </r>
       <r>    5.2205    1.0000 </r>
       <r>    5.5296    1.0000 </r>
       <r>    5.6243    1.0000 </r>
       <r>    5.6254    1.0000 </r>
       <r>    6.2490    1.0000 </r>
       <r>    6.2654    1.0000 </r>
       <r>    6.9151    1.0000 </r>
       <r>    7.0849    1.0000 </r>
       <r>    7.3580    1.0000 </r>
       <r>    7.7250    1.0000 </r>
       <r>    7.9496    1.0000 </r>
       <r>    7.9558    1.0000 </r>
       <r>    7.9990    1.0000 </r>
       <r>    8.5469    1.0000 </r>
       <r>    8.6480    1.0000 </r>
       <r>    8.7928    1.0000 </r>
       <r>    9.2829    0.1087 </r>
       <r>    9.2834    0.1074 </r>
       <r>   16.3205    0.0000 </r>
       <r>   16.5850    0.0000 </r>
       <r>   17.4021    0.0000 </r>
       <r>   17.6833    0.0000 </r>
      </set>
      <set comment="kpoint 6">
       <r>  -40.6896    1.0000 </r>
       <r>  -40.6854    1.0000 </r>
       <r>  -40.6731    1.0000 </r>
       <r>  -40.6526    1.0000 </r>
       <r>  -40.5827    1.0000 </r>
       <r>  -40.5581    1.0000 </r>
       <r>  -40.5325    1.0000 </r>
       <r>  -40.5074    1.0000 </r>
       <r>  -40.4700    1.0000 </r>
       <r>  -40.4665    1.0000 </r>
       <r>  -40.4555    1.0000 </r>
       <r>  -40.4377    1.0000 </r>
       <r>    4.9179    1.0000 </r>
       <r>    5.1342    1.0000 </r>
       <r>    5.2413    1.0000 </r>
       <r>    5.2735    1.0000 </r>
       <r>    5.8912    1.0000 </r>
       <r>    5.9097    1.0000 </r>
       <r>    6.0775    1.0000 </r>
       <r>    6.0900    1.0000 </r>
       <r>    6.1724    1.0000 </r>
       <r>    6.2683    1.0000 </r>
       <r>    6.4804    1.0000 </r>
       <r>    6.4958    1.0000 </r>
       <r>    7.1603    1.0000 </r>
       <r>    7.4049    1.0000 </r>
       <r>    7.4296    1.0000 </r>
       <r>    7.4802    1.0000 </r>
       <r>    7.8948    1.0000 </r>
       <r>    8.2406    1.0000 </r>
       <r>    8.4181    1.0000 </r>
       <r>    8.4899    1.0000 </r>
       <r>   10.1201    0.0000 </r>
       <r>   10.9910    0.0000 </r>
       <r>   12.0269    0.0000 </r>
       <r>   13.0037    0.0000 </r>
       <r>   18.7494    0.0000 </r>
       <r>   19.7160    0.0000 </r>
      </set>
      <set comment="kpoint 7">
       <r>  -40.6923    1.0000 </r>
       <r>  -40.6921    1.0000 </r>
       <r>  -40.6648    1.0000 </r>
       <r>  -40.6016    1.0000 </r>
       <r>  -40.5997    1.0000 </r>
       <r>  -40.5274    1.0000 </r>
       <r>  -40.5270    1.0000 </r>
       <r>  -40.5240    1.0000 </r>
       <r>  -40.5067    1.0000 </r>
       <r>  -40.4972    1.0000 </r>
       <r>  -40.4375    1.0000 </r>
       <r>  -40.4322    1.0000 </r>
       <r>    3.7221    1.0000 </r>
       <r>    4.6309    1.0000 </r>
       <r>    4.8273    1.0000 </r>
       <r>    4.8414    1.0000 </r>
       <r>    4.9349    1.0000 </r>
       <r>    5.2055    1.0000 </r>
       <r>    5.2187    1.0000 </r>
       <r>    5.8382    1.0000 </r>
       <r>    6.8951    1.0000 </r>
       <r>    6.9163    1.0000 </r>
       <r>    6.9291    1.0000 </r>
       <r>    7.0434    1.0000 </r>
       <r>    7.5725    1.0000 </r>
       <r>    7.6619    1.0000 </r>
       <r>    8.1168    1.0000 </r>
       <r>    8.2055    1.0000 </r>
       <r>    8.2208    1.0000 </r>
       <r>    8.3312    1.0000 </r>
       <r>    8.9890    0.9983 </r>
       <r>    9.2908    0.0892 </r>
       <r>    9.2924    0.0856 </r>
       <r>    9.6258    0.0000 </r>
       <r>   15.2390    0.0000 </r>
       <r>   15.4950    0.0000 </r>
       <r>   18.3558    0.0000 </r>
       <r>   18.6490    0.0000 </r>
      </set>
      <set comment="kpoint 8">
       <r>  -40.6894    1.0000 </r>
       <r>  -40.6825    1.0000 </r>
       <r>  -40.6628    1.0000 </r>
       <r>  -40.6169    1.0000 </r>
       <r>  -40.5909    1.0000 </r>
       <r>  -40.5815    1.0000 </r>
       <r>  -40.5141    1.0000 </r>
       <r>  -40.5005    1.0000 </r>
       <r>  -40.4977    1.0000 </r>
       <r>  -40.4763    1.0000 </r>
       <r>  -40.4652    1.0000 </r>
       <r>  -40.4293    1.0000 </r>
       <r>    4.3469    1.0000 </r>
       <r>    4.9179    1.0000 </r>
       <r>    5.0566    1.0000 </r>
       <r>    5.2219    1.0000 </r>
       <r>    5.4497    1.0000 </r>
       <r>    5.5237    1.0000 </r>
       <r>    5.6326    1.0000 </r>
       <r>    5.8777    1.0000 </r>
       <r>    6.2913    1.0000 </r>
       <r>    6.5747    1.0000 </r>
       <r>    6.5819    1.0000 </r>
       <r>    6.6981    1.0000 </r>
       <r>    7.1243    1.0000 </r>
       <r>    7.7742    1.0000 </r>
       <r>    7.8216    1.0000 </r>
       <r>    7.8313    1.0000 </r>
       <r>    7.9537    1.0000 </r>
       <r>    8.6708    1.0000 </r>
       <r>    8.8622    1.0000 </r>
       <r>    8.9335    0.9999 </r>
       <r>    8.9426    0.9998 </r>
       <r>   10.2906    0.0000 </r>
       <r>   13.4754    0.0000 </r>
       <r>   15.4358    0.0000 </r>
       <r>   17.0419    0.0000 </r>
       <r>   19.0227    0.0000 </r>
      </set>
      <set comment="kpoint 9">
       <r>  -40.7317    1.0000 </r>
       <r>  -40.7295    1.0000 </r>
       <r>  -40.7277    1.0000 </r>
       <r>  -40.5584    1.0000 </r>
       <r>  -40.5567    1.0000 </r>
       <r>  -40.5441    1.0000 </r>
       <r>  -40.5298    1.0000 </r>
       <r>  -40.5296    1.0000 </r>
       <r>  -40.5267    1.0000 </r>
       <r>  -40.4463    1.0000 </r>
       <r>  -40.4079    1.0000 </r>
       <r>  -40.4052    1.0000 </r>
       <r>    2.7113    1.0000 </r>
       <r>    4.2638    1.0000 </r>
       <r>    4.2761    1.0000 </r>
       <r>    4.2787    1.0000 </r>
       <r>    4.5203    1.0000 </r>
       <r>    4.5550    1.0000 </r>
       <r>    4.5672    1.0000 </r>
       <r>    6.3089    1.0000 </r>
       <r>    6.6205    1.0000 </r>
       <r>    6.6319    1.0000 </r>
       <r>    7.8941    1.0000 </r>
       <r>    8.0171    1.0000 </r>
       <r>    8.4147    1.0000 </r>
       <r>    8.4191    1.0000 </r>
       <r>    8.5871    1.0000 </r>
       <r>    8.7916    1.0000 </r>
       <r>    8.7960    1.0000 </r>
       <r>    8.8126    1.0000 </r>
       <r>    9.3208    0.0384 </r>
       <r>    9.3499    0.0146 </r>
       <r>    9.3513    0.0138 </r>
       <r>   12.1675    0.0000 </r>
       <r>   13.1179    0.0000 </r>
       <r>   13.3623    0.0000 </r>
       <r>   20.0674    0.0000 </r>
       <r>   20.2872    0.0000 </r>
      </set>
      <set comment="kpoint 10">
       <r>  -40.6818    1.0000 </r>
       <r>  -40.6779    1.0000 </r>
       <r>  -40.6393    1.0000 </r>
       <r>  -40.6184    1.0000 </r>
       <r>  -40.6110    1.0000 </r>
       <r>  -40.5358    1.0000 </r>
       <r>  -40.5319    1.0000 </r>
       <r>  -40.5311    1.0000 </r>
       <r>  -40.4949    1.0000 </r>
       <r>  -40.4895    1.0000 </r>
       <r>  -40.4483    1.0000 </r>
       <r>  -40.4435    1.0000 </r>
       <r>    3.9527    1.0000 </r>
       <r>    4.6330    1.0000 </r>
       <r>    4.9408    1.0000 </r>
       <r>    4.9623    1.0000 </r>
       <r>    5.0049    1.0000 </r>
       <r>    5.3730    1.0000 </r>
       <r>    5.3860    1.0000 </r>
       <r>    5.6622    1.0000 </r>
       <r>    6.5911    1.0000 </r>
       <r>    6.6350    1.0000 </r>
       <r>    7.0058    1.0000 </r>
       <r>    7.2326    1.0000 </r>
       <r>    7.5062    1.0000 </r>
       <r>    7.6392    1.0000 </r>
       <r>    8.0578    1.0000 </r>
       <r>    8.0759    1.0000 </r>
       <r>    8.1036    1.0000 </r>
       <r>    8.4109    1.0000 </r>
       <r>    8.7272    1.0000 </r>
       <r>    8.9801    0.9988 </r>
       <r>    9.3547    0.0123 </r>
       <r>    9.3572    0.0112 </r>
       <r>   15.8756    0.0000 </r>
       <r>   16.4611    0.0000 </r>
       <r>   18.0554    0.0000 </r>
       <r>   18.7939    0.0000 </r>
      </set>
      <set comment="kpoint 11">
       <r>  -40.7101    1.0000 </r>
       <r>  -40.7077    1.0000 </r>
       <r>  -40.6902    1.0000 </r>
       <r>  -40.5923    1.0000 </r>
       <r>  -40.5750    1.0000 </r>
       <r>  -40.5299    1.0000 </r>
       <r>  -40.5262    1.0000 </r>
       <r>  -40.5213    1.0000 </r>
       <r>  -40.5117    1.0000 </r>
       <r>  -40.4884    1.0000 </r>
       <r>  -40.4285    1.0000 </r>
       <r>  -40.4179    1.0000 </r>
       <r>    3.2850    1.0000 </r>
       <r>    4.5038    1.0000 </r>
       <r>    4.5781    1.0000 </r>
       <r>    4.6257    1.0000 </r>
       <r>    4.7339    1.0000 </r>
       <r>    4.8939    1.0000 </r>
       <r>    4.9580    1.0000 </r>
       <r>    6.0282    1.0000 </r>
       <r>    6.8458    1.0000 </r>
       <r>    6.8697    1.0000 </r>
       <r>    7.4054    1.0000 </r>
       <r>    7.4910    1.0000 </r>
       <r>    7.6489    1.0000 </r>
       <r>    7.9740    1.0000 </r>
       <r>    8.2073    1.0000 </r>
       <r>    8.4341    1.0000 </r>
       <r>    8.5187    1.0000 </r>
       <r>    8.5372    1.0000 </r>
       <r>    9.0350    0.9885 </r>
       <r>    9.3028    0.0648 </r>
       <r>    9.3062    0.0590 </r>
       <r>   10.4120    0.0000 </r>
       <r>   14.1469    0.0000 </r>
       <r>   15.1738    0.0000 </r>
       <r>   18.7050    0.0000 </r>
       <r>   19.9632    0.0000 </r>
      </set>
      <set comment="kpoint 12">
       <r>  -40.7149    1.0000 </r>
       <r>  -40.7139    1.0000 </r>
       <r>  -40.7066    1.0000 </r>
       <r>  -40.5776    1.0000 </r>
       <r>  -40.5670    1.0000 </r>
       <r>  -40.5422    1.0000 </r>
       <r>  -40.5202    1.0000 </r>
       <r>  -40.5188    1.0000 </r>
       <r>  -40.5164    1.0000 </r>
       <r>  -40.4920    1.0000 </r>
       <r>  -40.4190    1.0000 </r>
       <r>  -40.4099    1.0000 </r>
       <r>    3.1740    1.0000 </r>
       <r>    4.4816    1.0000 </r>
       <r>    4.4957    1.0000 </r>
       <r>    4.5099    1.0000 </r>
       <r>    4.7774    1.0000 </r>
       <r>    4.8507    1.0000 </r>
       <r>    4.8868    1.0000 </r>
       <r>    6.1887    1.0000 </r>
       <r>    6.7441    1.0000 </r>
       <r>    6.7534    1.0000 </r>
       <r>    7.6847    1.0000 </r>
       <r>    7.7111    1.0000 </r>
       <r>    7.8160    1.0000 </r>
       <r>    7.8865    1.0000 </r>
       <r>    8.0852    1.0000 </r>
       <r>    8.4040    1.0000 </r>
       <r>    8.4460    1.0000 </r>
       <r>    8.4842    1.0000 </r>
       <r>    9.2647    0.1645 </r>
       <r>    9.2748    0.1315 </r>
       <r>    9.2791    0.1190 </r>
       <r>   11.7527    0.0000 </r>
       <r>   13.3524    0.0000 </r>
       <r>   13.9879    0.0000 </r>
       <r>   19.0966    0.0000 </r>
       <r>   19.7236    0.0000 </r>
      </set>
      <set comment="kpoint 13">
       <r>  -40.6994    1.0000 </r>
       <r>  -40.6988    1.0000 </r>
       <r>  -40.6945    1.0000 </r>
       <r>  -40.5995    1.0000 </r>
       <r>  -40.5547    1.0000 </r>
       <r>  -40.5499    1.0000 </r>
       <r>  -40.5414    1.0000 </r>
       <r>  -40.5048    1.0000 </r>
       <r>  -40.5040    1.0000 </r>
       <r>  -40.5013    1.0000 </r>
       <r>  -40.4389    1.0000 </r>
       <r>  -40.4167    1.0000 </r>
       <r>    3.7849    1.0000 </r>
       <r>    4.7445    1.0000 </r>
       <r>    4.7684    1.0000 </r>
       <r>    4.8027    1.0000 </r>
       <r>    5.2083    1.0000 </r>
       <r>    5.2334    1.0000 </r>
       <r>    5.3619    1.0000 </r>
       <r>    6.1129    1.0000 </r>
       <r>    6.8036    1.0000 </r>
       <r>    6.8645    1.0000 </r>
       <r>    6.9235    1.0000 </r>
       <r>    6.9887    1.0000 </r>
       <r>    7.0867    1.0000 </r>
       <r>    7.7589    1.0000 </r>
       <r>    8.0093    1.0000 </r>
       <r>    8.0588    1.0000 </r>
       <r>    8.1073    1.0000 </r>
       <r>    8.3832    1.0000 </r>
       <r>    9.0983    0.9157 </r>
       <r>    9.1045    0.9014 </r>
       <r>    9.1128    0.8793 </r>
       <r>   11.7655    0.0000 </r>
       <r>   12.4427    0.0000 </r>
       <r>   15.2032    0.0000 </r>
       <r>   17.1100    0.0000 </r>
       <r>   19.7742    0.0000 </r>
      </set>
      <set comment="kpoint 14">
       <r>  -40.6956    1.0000 </r>
       <r>  -40.6931    1.0000 </r>
       <r>  -40.6774    1.0000 </r>
       <r>  -40.6050    1.0000 </r>
       <r>  -40.5753    1.0000 </r>
       <r>  -40.5696    1.0000 </r>
       <r>  -40.5187    1.0000 </r>
       <r>  -40.5073    1.0000 </r>
       <r>  -40.5034    1.0000 </r>
       <r>  -40.4890    1.0000 </r>
       <r>  -40.4472    1.0000 </r>
       <r>  -40.4238    1.0000 </r>
       <r>    4.0260    1.0000 </r>
       <r>    4.7942    1.0000 </r>
       <r>    4.8947    1.0000 </r>
       <r>    4.9825    1.0000 </r>
       <r>    5.3075    1.0000 </r>
       <r>    5.3977    1.0000 </r>
       <r>    5.4817    1.0000 </r>
       <r>    5.9978    1.0000 </r>
       <r>    6.6131    1.0000 </r>
       <r>    6.7827    1.0000 </r>
       <r>    6.8086    1.0000 </r>
       <r>    6.8728    1.0000 </r>
       <r>    6.9694    1.0000 </r>
       <r>    7.8358    1.0000 </r>
       <r>    7.8468    1.0000 </r>
       <r>    7.9264    1.0000 </r>
       <r>    8.0315    1.0000 </r>
       <r>    8.5226    1.0000 </r>
       <r>    8.9942    0.9978 </r>
       <r>    9.0728    0.9588 </r>
       <r>    9.0809    0.9477 </r>
       <r>   10.6047    0.0000 </r>
       <r>   13.5335    0.0000 </r>
       <r>   15.5451    0.0000 </r>
       <r>   16.7962    0.0000 </r>
       <r>   18.7997    0.0000 </r>
      </set>
      <set comment="kpoint 15">
       <r>  -40.6952    1.0000 </r>
       <r>  -40.6930    1.0000 </r>
       <r>  -40.6602    1.0000 </r>
       <r>  -40.6268    1.0000 </r>
       <r>  -40.5946    1.0000 </r>
       <r>  -40.5784    1.0000 </r>
       <r>  -40.5016    1.0000 </r>
       <r>  -40.4914    1.0000 </r>
       <r>  -40.4902    1.0000 </r>
       <r>  -40.4777    1.0000 </r>
       <r>  -40.4601    1.0000 </r>
       <r>  -40.4397    1.0000 </r>
       <r>    4.6062    1.0000 </r>
       <r>    4.8642    1.0000 </r>
       <r>    5.2136    1.0000 </r>
       <r>    5.3245    1.0000 </r>
       <r>    5.5944    1.0000 </r>
       <r>    5.6651    1.0000 </r>
       <r>    5.8120    1.0000 </r>
       <r>    5.9795    1.0000 </r>
       <r>    6.3235    1.0000 </r>
       <r>    6.4088    1.0000 </r>
       <r>    6.4926    1.0000 </r>
       <r>    6.5460    1.0000 </r>
       <r>    7.1514    1.0000 </r>
       <r>    7.4354    1.0000 </r>
       <r>    7.6265    1.0000 </r>
       <r>    7.6920    1.0000 </r>
       <r>    8.1185    1.0000 </r>
       <r>    8.5535    1.0000 </r>
       <r>    8.8698    1.0000 </r>
       <r>    8.8776    1.0000 </r>
       <r>    9.2764    0.1268 </r>
       <r>   10.0208    0.0000 </r>
       <r>   13.5660    0.0000 </r>
       <r>   14.4961    0.0000 </r>
       <r>   17.3207    0.0000 </r>
       <r>   18.2397    0.0000 </r>
      </set>
      <set comment="kpoint 16">
       <r>  -40.6903    1.0000 </r>
       <r>  -40.6865    1.0000 </r>
       <r>  -40.6475    1.0000 </r>
       <r>  -40.6098    1.0000 </r>
       <r>  -40.6050    1.0000 </r>
       <r>  -40.5932    1.0000 </r>
       <r>  -40.5032    1.0000 </r>
       <r>  -40.5025    1.0000 </r>
       <r>  -40.4925    1.0000 </r>
       <r>  -40.4679    1.0000 </r>
       <r>  -40.4656    1.0000 </r>
       <r>  -40.4439    1.0000 </r>
       <r>    4.5066    1.0000 </r>
       <r>    4.7912    1.0000 </r>
       <r>    5.2261    1.0000 </r>
       <r>    5.3324    1.0000 </r>
       <r>    5.5164    1.0000 </r>
       <r>    5.5862    1.0000 </r>
       <r>    5.5868    1.0000 </r>
       <r>    5.8082    1.0000 </r>
       <r>    6.2923    1.0000 </r>
       <r>    6.4133    1.0000 </r>
       <r>    6.5937    1.0000 </r>
       <r>    6.6345    1.0000 </r>
       <r>    7.1948    1.0000 </r>
       <r>    7.4943    1.0000 </r>
       <r>    7.7589    1.0000 </r>
       <r>    7.8091    1.0000 </r>
       <r>    8.2040    1.0000 </r>
       <r>    8.6692    1.0000 </r>
       <r>    8.9293    0.9999 </r>
       <r>    9.0133    0.9950 </r>
       <r>    9.0186    0.9939 </r>
       <r>    9.5749    0.0000 </r>
       <r>   14.4605    0.0000 </r>
       <r>   15.3375    0.0000 </r>
       <r>   16.9411    0.0000 </r>
       <r>   17.8211    0.0000 </r>
      </set>
      <set comment="kpoint 17">
       <r>  -40.6950    1.0000 </r>
       <r>  -40.6939    1.0000 </r>
       <r>  -40.6830    1.0000 </r>
       <r>  -40.6039    1.0000 </r>
       <r>  -40.5909    1.0000 </r>
       <r>  -40.5595    1.0000 </r>
       <r>  -40.5281    1.0000 </r>
       <r>  -40.4957    1.0000 </r>
       <r>  -40.4940    1.0000 </r>
       <r>  -40.4843    1.0000 </r>
       <r>  -40.4561    1.0000 </r>
       <r>  -40.4227    1.0000 </r>
       <r>    4.2003    1.0000 </r>
       <r>    4.9016    1.0000 </r>
       <r>    4.9422    1.0000 </r>
       <r>    5.0356    1.0000 </r>
       <r>    5.5181    1.0000 </r>
       <r>    5.5348    1.0000 </r>
       <r>    5.6232    1.0000 </r>
       <r>    6.0752    1.0000 </r>
       <r>    6.4679    1.0000 </r>
       <r>    6.5830    1.0000 </r>
       <r>    6.7508    1.0000 </r>
       <r>    6.7550    1.0000 </r>
       <r>    6.9616    1.0000 </r>
       <r>    7.7664    1.0000 </r>
       <r>    7.7760    1.0000 </r>
       <r>    7.8018    1.0000 </r>
       <r>    7.8882    1.0000 </r>
       <r>    8.7580    1.0000 </r>
       <r>    8.8989    1.0000 </r>
       <r>    8.9597    0.9996 </r>
       <r>    8.9672    0.9994 </r>
       <r>   11.0923    0.0000 </r>
       <r>   12.6561    0.0000 </r>
       <r>   15.3519    0.0000 </r>
       <r>   16.6039    0.0000 </r>
       <r>   19.2426    0.0000 </r>
      </set>
      <set comment="kpoint 18">
       <r>  -40.7038    1.0000 </r>
       <r>  -40.7027    1.0000 </r>
       <r>  -40.7003    1.0000 </r>
       <r>  -40.5929    1.0000 </r>
       <r>  -40.5574    1.0000 </r>
       <r>  -40.5453    1.0000 </r>
       <r>  -40.5280    1.0000 </r>
       <r>  -40.5110    1.0000 </r>
       <r>  -40.5103    1.0000 </r>
       <r>  -40.5069    1.0000 </r>
       <r>  -40.4296    1.0000 </r>
       <r>  -40.4139    1.0000 </r>
       <r>    3.5426    1.0000 </r>
       <r>    4.6414    1.0000 </r>
       <r>    4.6603    1.0000 </r>
       <r>    4.6847    1.0000 </r>
       <r>    5.0378    1.0000 </r>
       <r>    5.0677    1.0000 </r>
       <r>    5.1813    1.0000 </r>
       <r>    6.1417    1.0000 </r>
       <r>    6.7965    1.0000 </r>
       <r>    6.8147    1.0000 </r>
       <r>    7.2199    1.0000 </r>
       <r>    7.2936    1.0000 </r>
       <r>    7.3160    1.0000 </r>
       <r>    7.7807    1.0000 </r>
       <r>    8.1638    1.0000 </r>
       <r>    8.1985    1.0000 </r>
       <r>    8.2290    1.0000 </r>
       <r>    8.2458    1.0000 </r>
       <r>    9.1757    0.6113 </r>
       <r>    9.1837    0.5673 </r>
       <r>    9.1894    0.5350 </r>
       <r>   11.9216    0.0000 </r>
       <r>   12.6051    0.0000 </r>
       <r>   14.7623    0.0000 </r>
       <r>   17.8057    0.0000 </r>
       <r>   19.8771    0.0000 </r>
      </set>
      <set comment="kpoint 19">
       <r>  -40.7056    1.0000 </r>
       <r>  -40.7053    1.0000 </r>
       <r>  -40.6916    1.0000 </r>
       <r>  -40.5890    1.0000 </r>
       <r>  -40.5783    1.0000 </r>
       <r>  -40.5293    1.0000 </r>
       <r>  -40.5190    1.0000 </r>
       <r>  -40.5165    1.0000 </r>
       <r>  -40.5151    1.0000 </r>
       <r>  -40.5073    1.0000 </r>
       <r>  -40.4271    1.0000 </r>
       <r>  -40.4170    1.0000 </r>
       <r>    3.4606    1.0000 </r>
       <r>    4.5883    1.0000 </r>
       <r>    4.6448    1.0000 </r>
       <r>    4.6690    1.0000 </r>
       <r>    4.9077    1.0000 </r>
       <r>    5.0447    1.0000 </r>
       <r>    5.0815    1.0000 </r>
       <r>    6.0745    1.0000 </r>
       <r>    6.8202    1.0000 </r>
       <r>    6.8478    1.0000 </r>
       <r>    7.2630    1.0000 </r>
       <r>    7.3132    1.0000 </r>
       <r>    7.5966    1.0000 </r>
       <r>    7.7542    1.0000 </r>
       <r>    8.1964    1.0000 </r>
       <r>    8.2032    1.0000 </r>
       <r>    8.2988    1.0000 </r>
       <r>    8.3428    1.0000 </r>
       <r>    9.1870    0.5485 </r>
       <r>    9.2311    0.3080 </r>
       <r>    9.2352    0.2879 </r>
       <r>   10.9533    0.0000 </r>
       <r>   13.9284    0.0000 </r>
       <r>   14.5620    0.0000 </r>
       <r>   18.4452    0.0000 </r>
       <r>   19.0928    0.0000 </r>
      </set>
      <set comment="kpoint 20">
       <r>  -40.7209    1.0000 </r>
       <r>  -40.7205    1.0000 </r>
       <r>  -40.7092    1.0000 </r>
       <r>  -40.5794    1.0000 </r>
       <r>  -40.5617    1.0000 </r>
       <r>  -40.5326    1.0000 </r>
       <r>  -40.5302    1.0000 </r>
       <r>  -40.5267    1.0000 </r>
       <r>  -40.5208    1.0000 </r>
       <r>  -40.4659    1.0000 </r>
       <r>  -40.4191    1.0000 </r>
       <r>  -40.4093    1.0000 </r>
       <r>    2.9774    1.0000 </r>
       <r>    4.3835    1.0000 </r>
       <r>    4.4148    1.0000 </r>
       <r>    4.4456    1.0000 </r>
       <r>    4.6122    1.0000 </r>
       <r>    4.7005    1.0000 </r>
       <r>    4.7603    1.0000 </r>
       <r>    6.1733    1.0000 </r>
       <r>    6.7307    1.0000 </r>
       <r>    6.7455    1.0000 </r>
       <r>    7.7512    1.0000 </r>
       <r>    7.8766    1.0000 </r>
       <r>    7.9361    1.0000 </r>
       <r>    8.1163    1.0000 </r>
       <r>    8.2715    1.0000 </r>
       <r>    8.6237    1.0000 </r>
       <r>    8.7190    1.0000 </r>
       <r>    8.7450    1.0000 </r>
       <r>    9.1559    0.7131 </r>
       <r>    9.3152    0.0454 </r>
       <r>    9.3168    0.0433 </r>
       <r>   11.1681    0.0000 </r>
       <r>   13.5028    0.0000 </r>
       <r>   14.5062    0.0000 </r>
       <r>   19.2515    0.0000 </r>
       <r>   20.1156    0.0000 </r>
      </set>
      <set comment="kpoint 21">
       <r>  -40.6964    1.0000 </r>
       <r>  -40.6895    1.0000 </r>
       <r>  -40.6687    1.0000 </r>
       <r>  -40.6128    1.0000 </r>
       <r>  -40.5873    1.0000 </r>
       <r>  -40.5247    1.0000 </r>
       <r>  -40.5240    1.0000 </r>
       <r>  -40.5203    1.0000 </r>
       <r>  -40.5134    1.0000 </r>
       <r>  -40.4987    1.0000 </r>
       <r>  -40.4418    1.0000 </r>
       <r>  -40.4250    1.0000 </r>
       <r>    3.7048    1.0000 </r>
       <r>    4.6699    1.0000 </r>
       <r>    4.7786    1.0000 </r>
       <r>    4.8664    1.0000 </r>
       <r>    4.9266    1.0000 </r>
       <r>    5.1478    1.0000 </r>
       <r>    5.2372    1.0000 </r>
       <r>    5.8733    1.0000 </r>
       <r>    6.8745    1.0000 </r>
       <r>    6.8853    1.0000 </r>
       <r>    7.0211    1.0000 </r>
       <r>    7.0357    1.0000 </r>
       <r>    7.4454    1.0000 </r>
       <r>    7.6379    1.0000 </r>
       <r>    8.1974    1.0000 </r>
       <r>    8.2754    1.0000 </r>
       <r>    8.3098    1.0000 </r>
       <r>    8.3514    1.0000 </r>
       <r>    8.8581    1.0000 </r>
       <r>    9.2253    0.3374 </r>
       <r>    9.2276    0.3255 </r>
       <r>    9.9850    0.0000 </r>
       <r>   14.3754    0.0000 </r>
       <r>   16.0388    0.0000 </r>
       <r>   17.6722    0.0000 </r>
       <r>   19.6066    0.0000 </r>
      </set>
      <set comment="kpoint 22">
       <r>  -40.7195    1.0000 </r>
       <r>  -40.7189    1.0000 </r>
       <r>  -40.7170    1.0000 </r>
       <r>  -40.5613    1.0000 </r>
       <r>  -40.5597    1.0000 </r>
       <r>  -40.5565    1.0000 </r>
       <r>  -40.5213    1.0000 </r>
       <r>  -40.5210    1.0000 </r>
       <r>  -40.5209    1.0000 </r>
       <r>  -40.4790    1.0000 </r>
       <r>  -40.4119    1.0000 </r>
       <r>  -40.4099    1.0000 </r>
       <r>    3.0217    1.0000 </r>
       <r>    4.4166    1.0000 </r>
       <r>    4.4182    1.0000 </r>
       <r>    4.4206    1.0000 </r>
       <r>    4.7402    1.0000 </r>
       <r>    4.7518    1.0000 </r>
       <r>    4.7582    1.0000 </r>
       <r>    6.2606    1.0000 </r>
       <r>    6.6910    1.0000 </r>
       <r>    6.6939    1.0000 </r>
       <r>    7.9303    1.0000 </r>
       <r>    7.9666    1.0000 </r>
       <r>    7.9854    1.0000 </r>
       <r>    7.9912    1.0000 </r>
       <r>    8.0117    1.0000 </r>
       <r>    8.4960    1.0000 </r>
       <r>    8.5014    1.0000 </r>
       <r>    8.5034    1.0000 </r>
       <r>    9.3150    0.0458 </r>
       <r>    9.3161    0.0443 </r>
       <r>    9.3166    0.0435 </r>
       <r>   12.7655    0.0000 </r>
       <r>   13.0172    0.0000 </r>
       <r>   13.0788    0.0000 </r>
       <r>   19.9477    0.0000 </r>
       <r>   20.0038    0.0000 </r>
      </set>
      <set comment="kpoint 23">
       <r>  -40.7010    1.0000 </r>
       <r>  -40.7007    1.0000 </r>
       <r>  -40.6865    1.0000 </r>
       <r>  -40.5930    1.0000 </r>
       <r>  -40.5847    1.0000 </r>
       <r>  -40.5622    1.0000 </r>
       <r>  -40.5235    1.0000 </r>
       <r>  -40.4990    1.0000 </r>
       <r>  -40.4975    1.0000 </r>
       <r>  -40.4898    1.0000 </r>
       <r>  -40.4454    1.0000 </r>
       <r>  -40.4230    1.0000 </r>
       <r>    4.0641    1.0000 </r>
       <r>    4.8041    1.0000 </r>
       <r>    4.8863    1.0000 </r>
       <r>    4.9394    1.0000 </r>
       <r>    5.4675    1.0000 </r>
       <r>    5.4908    1.0000 </r>
       <r>    5.5494    1.0000 </r>
       <r>    6.1462    1.0000 </r>
       <r>    6.6298    1.0000 </r>
       <r>    6.7607    1.0000 </r>
       <r>    6.7677    1.0000 </r>
       <r>    6.8230    1.0000 </r>
       <r>    6.8942    1.0000 </r>
       <r>    7.7215    1.0000 </r>
       <r>    7.7921    1.0000 </r>
       <r>    7.8725    1.0000 </r>
       <r>    7.9034    1.0000 </r>
       <r>    8.5510    1.0000 </r>
       <r>    9.0694    0.9629 </r>
       <r>    9.0763    0.9543 </r>
       <r>    9.0905    0.9315 </r>
       <r>   11.0603    0.0000 </r>
       <r>   13.0527    0.0000 </r>
       <r>   15.0682    0.0000 </r>
       <r>   16.7125    0.0000 </r>
       <r>   18.6740    0.0000 </r>
      </set>
      <set comment="kpoint 24">
       <r>  -40.6966    1.0000 </r>
       <r>  -40.6964    1.0000 </r>
       <r>  -40.6753    1.0000 </r>
       <r>  -40.5928    1.0000 </r>
       <r>  -40.5894    1.0000 </r>
       <r>  -40.5573    1.0000 </r>
       <r>  -40.5125    1.0000 </r>
       <r>  -40.5120    1.0000 </r>
       <r>  -40.5106    1.0000 </r>
       <r>  -40.4936    1.0000 </r>
       <r>  -40.4382    1.0000 </r>
       <r>  -40.4299    1.0000 </r>
       <r>    3.9201    1.0000 </r>
       <r>    4.7186    1.0000 </r>
       <r>    4.8902    1.0000 </r>
       <r>    4.9045    1.0000 </r>
       <r>    5.2062    1.0000 </r>
       <r>    5.3621    1.0000 </r>
       <r>    5.3755    1.0000 </r>
       <r>    5.9692    1.0000 </r>
       <r>    6.7664    1.0000 </r>
       <r>    6.7944    1.0000 </r>
       <r>    6.8166    1.0000 </r>
       <r>    6.9564    1.0000 </r>
       <r>    7.0981    1.0000 </r>
       <r>    7.8244    1.0000 </r>
       <r>    7.8951    1.0000 </r>
       <r>    8.0305    1.0000 </r>
       <r>    8.0467    1.0000 </r>
       <r>    8.3758    1.0000 </r>
       <r>    9.1102    0.8867 </r>
       <r>    9.1627    0.6793 </r>
       <r>    9.1646    0.6699 </r>
       <r>   10.2818    0.0000 </r>
       <r>   14.5563    0.0000 </r>
       <r>   14.8516    0.0000 </r>
       <r>   17.6760    0.0000 </r>
       <r>   17.9728    0.0000 </r>
      </set>
      <set comment="kpoint 25">
       <r>  -40.7067    1.0000 </r>
       <r>  -40.7033    1.0000 </r>
       <r>  -40.6794    1.0000 </r>
       <r>  -40.6544    1.0000 </r>
       <r>  -40.5721    1.0000 </r>
       <r>  -40.5551    1.0000 </r>
       <r>  -40.5057    1.0000 </r>
       <r>  -40.4824    1.0000 </r>
       <r>  -40.4784    1.0000 </r>
       <r>  -40.4773    1.0000 </r>
       <r>  -40.4578    1.0000 </r>
       <r>  -40.4377    1.0000 </r>
       <r>    4.6201    1.0000 </r>
       <r>    4.8359    1.0000 </r>
       <r>    5.1022    1.0000 </r>
       <r>    5.1213    1.0000 </r>
       <r>    5.7811    1.0000 </r>
       <r>    5.7905    1.0000 </r>
       <r>    6.1660    1.0000 </r>
       <r>    6.3110    1.0000 </r>
       <r>    6.3376    1.0000 </r>
       <r>    6.5251    1.0000 </r>
       <r>    6.5263    1.0000 </r>
       <r>    6.6969    1.0000 </r>
       <r>    7.0217    1.0000 </r>
       <r>    7.2650    1.0000 </r>
       <r>    7.3927    1.0000 </r>
       <r>    7.4454    1.0000 </r>
       <r>    8.1734    1.0000 </r>
       <r>    8.5808    1.0000 </r>
       <r>    8.7877    1.0000 </r>
       <r>    8.7986    1.0000 </r>
       <r>    9.6204    0.0000 </r>
       <r>   10.4686    0.0000 </r>
       <r>   12.7512    0.0000 </r>
       <r>   13.6768    0.0000 </r>
       <r>   17.3555    0.0000 </r>
       <r>   18.2587    0.0000 </r>
      </set>
      <set comment="kpoint 26">
       <r>  -40.6873    1.0000 </r>
       <r>  -40.6870    1.0000 </r>
       <r>  -40.6400    1.0000 </r>
       <r>  -40.6036    1.0000 </r>
       <r>  -40.6021    1.0000 </r>
       <r>  -40.6012    1.0000 </r>
       <r>  -40.5109    1.0000 </r>
       <r>  -40.5100    1.0000 </r>
       <r>  -40.4822    1.0000 </r>
       <r>  -40.4748    1.0000 </r>
       <r>  -40.4573    1.0000 </r>
       <r>  -40.4507    1.0000 </r>
       <r>    4.4303    1.0000 </r>
       <r>    4.7251    1.0000 </r>
       <r>    5.2316    1.0000 </r>
       <r>    5.2451    1.0000 </r>
       <r>    5.4888    1.0000 </r>
       <r>    5.5311    1.0000 </r>
       <r>    5.5392    1.0000 </r>
       <r>    5.7386    1.0000 </r>
       <r>    6.3429    1.0000 </r>
       <r>    6.3606    1.0000 </r>
       <r>    6.7053    1.0000 </r>
       <r>    6.7483    1.0000 </r>
       <r>    7.1898    1.0000 </r>
       <r>    7.4837    1.0000 </r>
       <r>    7.8259    1.0000 </r>
       <r>    7.8334    1.0000 </r>
       <r>    8.3572    1.0000 </r>
       <r>    8.6468    1.0000 </r>
       <r>    8.8869    1.0000 </r>
       <r>    9.1153    0.8722 </r>
       <r>    9.1164    0.8688 </r>
       <r>    9.1907    0.5282 </r>
       <r>   15.4447    0.0000 </r>
       <r>   15.6655    0.0000 </r>
       <r>   16.8350    0.0000 </r>
       <r>   17.0576    0.0000 </r>
      </set>
      <set comment="kpoint 27">
       <r>  -40.7035    1.0000 </r>
       <r>  -40.6979    1.0000 </r>
       <r>  -40.6961    1.0000 </r>
       <r>  -40.6206    1.0000 </r>
       <r>  -40.5856    1.0000 </r>
       <r>  -40.5383    1.0000 </r>
       <r>  -40.5329    1.0000 </r>
       <r>  -40.4864    1.0000 </r>
       <r>  -40.4808    1.0000 </r>
       <r>  -40.4783    1.0000 </r>
       <r>  -40.4612    1.0000 </r>
       <r>  -40.4272    1.0000 </r>
       <r>    4.3448    1.0000 </r>
       <r>    4.9463    1.0000 </r>
       <r>    4.9734    1.0000 </r>
       <r>    4.9798    1.0000 </r>
       <r>    5.7461    1.0000 </r>
       <r>    5.7778    1.0000 </r>
       <r>    5.7928    1.0000 </r>
       <r>    6.2797    1.0000 </r>
       <r>    6.4331    1.0000 </r>
       <r>    6.4355    1.0000 </r>
       <r>    6.7268    1.0000 </r>
       <r>    6.7519    1.0000 </r>
       <r>    6.8942    1.0000 </r>
       <r>    7.5342    1.0000 </r>
       <r>    7.5693    1.0000 </r>
       <r>    7.5910    1.0000 </r>
       <r>    7.9062    1.0000 </r>
       <r>    8.9020    1.0000 </r>
       <r>    8.9124    1.0000 </r>
       <r>    8.9219    0.9999 </r>
       <r>    9.0098    0.9957 </r>
       <r>   11.6246    0.0000 </r>
       <r>   11.8799    0.0000 </r>
       <r>   14.6332    0.0000 </r>
       <r>   16.6339    0.0000 </r>
       <r>   19.2850    0.0000 </r>
      </set>
      <set comment="kpoint 28">
       <r>  -40.7089    1.0000 </r>
       <r>  -40.7072    1.0000 </r>
       <r>  -40.7007    1.0000 </r>
       <r>  -40.5783    1.0000 </r>
       <r>  -40.5739    1.0000 </r>
       <r>  -40.5393    1.0000 </r>
       <r>  -40.5171    1.0000 </r>
       <r>  -40.5153    1.0000 </r>
       <r>  -40.5140    1.0000 </r>
       <r>  -40.5095    1.0000 </r>
       <r>  -40.4224    1.0000 </r>
       <r>  -40.4142    1.0000 </r>
       <r>    3.4092    1.0000 </r>
       <r>    4.5740    1.0000 </r>
       <r>    4.6047    1.0000 </r>
       <r>    4.6120    1.0000 </r>
       <r>    4.9402    1.0000 </r>
       <r>    5.0331    1.0000 </r>
       <r>    5.0492    1.0000 </r>
       <r>    6.1610    1.0000 </r>
       <r>    6.7810    1.0000 </r>
       <r>    6.7921    1.0000 </r>
       <r>    7.3920    1.0000 </r>
       <r>    7.4087    1.0000 </r>
       <r>    7.5743    1.0000 </r>
       <r>    7.8283    1.0000 </r>
       <r>    8.1294    1.0000 </r>
       <r>    8.1801    1.0000 </r>
       <r>    8.2698    1.0000 </r>
       <r>    8.2841    1.0000 </r>
       <r>    9.2481    0.2292 </r>
       <r>    9.2513    0.2155 </r>
       <r>    9.2583    0.1877 </r>
       <r>   11.6073    0.0000 </r>
       <r>   13.6175    0.0000 </r>
       <r>   13.9206    0.0000 </r>
       <r>   18.7452    0.0000 </r>
       <r>   19.0398    0.0000 </r>
      </set>
      <set comment="kpoint 29">
       <r>  -40.6977    1.0000 </r>
       <r>  -40.6970    1.0000 </r>
       <r>  -40.6765    1.0000 </r>
       <r>  -40.5926    1.0000 </r>
       <r>  -40.5910    1.0000 </r>
       <r>  -40.5486    1.0000 </r>
       <r>  -40.5148    1.0000 </r>
       <r>  -40.5132    1.0000 </r>
       <r>  -40.5126    1.0000 </r>
       <r>  -40.4964    1.0000 </r>
       <r>  -40.4356    1.0000 </r>
       <r>  -40.4280    1.0000 </r>
       <r>    3.8341    1.0000 </r>
       <r>    4.6975    1.0000 </r>
       <r>    4.8490    1.0000 </r>
       <r>    4.8561    1.0000 </r>
       <r>    5.1383    1.0000 </r>
       <r>    5.3089    1.0000 </r>
       <r>    5.3168    1.0000 </r>
       <r>    5.9764    1.0000 </r>
       <r>    6.8296    1.0000 </r>
       <r>    6.8580    1.0000 </r>
       <r>    6.8676    1.0000 </r>
       <r>    6.9425    1.0000 </r>
       <r>    7.1988    1.0000 </r>
       <r>    7.8468    1.0000 </r>
       <r>    7.8945    1.0000 </r>
       <r>    8.0921    1.0000 </r>
       <r>    8.0989    1.0000 </r>
       <r>    8.3369    1.0000 </r>
       <r>    9.1251    0.8409 </r>
       <r>    9.1800    0.5877 </r>
       <r>    9.1823    0.5751 </r>
       <r>   10.3569    0.0000 </r>
       <r>   14.6327    0.0000 </r>
       <r>   14.6921    0.0000 </r>
       <r>   17.9692    0.0000 </r>
       <r>   18.0289    0.0000 </r>
      </set>
      <set comment="kpoint 30">
       <r>  -40.7271    1.0000 </r>
       <r>  -40.7251    1.0000 </r>
       <r>  -40.7220    1.0000 </r>
       <r>  -40.5724    1.0000 </r>
       <r>  -40.5485    1.0000 </r>
       <r>  -40.5446    1.0000 </r>
       <r>  -40.5276    1.0000 </r>
       <r>  -40.5272    1.0000 </r>
       <r>  -40.5269    1.0000 </r>
       <r>  -40.4548    1.0000 </r>
       <r>  -40.4139    1.0000 </r>
       <r>  -40.4045    1.0000 </r>
       <r>    2.8164    1.0000 </r>
       <r>    4.3235    1.0000 </r>
       <r>    4.3305    1.0000 </r>
       <r>    4.3379    1.0000 </r>
       <r>    4.5694    1.0000 </r>
       <r>    4.5811    1.0000 </r>
       <r>    4.6605    1.0000 </r>
       <r>    6.2647    1.0000 </r>
       <r>    6.6471    1.0000 </r>
       <r>    6.6812    1.0000 </r>
       <r>    7.8397    1.0000 </r>
       <r>    8.0548    1.0000 </r>
       <r>    8.2261    1.0000 </r>
       <r>    8.2452    1.0000 </r>
       <r>    8.3016    1.0000 </r>
       <r>    8.7179    1.0000 </r>
       <r>    8.8516    1.0000 </r>
       <r>    8.8555    1.0000 </r>
       <r>    9.2540    0.2046 </r>
       <r>    9.2752    0.1303 </r>
       <r>    9.3064    0.0587 </r>
       <r>   12.2045    0.0000 </r>
       <r>   12.5325    0.0000 </r>
       <r>   14.1305    0.0000 </r>
       <r>   19.4530    0.0000 </r>
       <r>   20.1911    0.0000 </r>
      </set>
      <set comment="kpoint 31">
       <r>  -40.7342    1.0000 </r>
       <r>  -40.7330    1.0000 </r>
       <r>  -40.7264    1.0000 </r>
       <r>  -40.5587    1.0000 </r>
       <r>  -40.5564    1.0000 </r>
       <r>  -40.5372    1.0000 </r>
       <r>  -40.5368    1.0000 </r>
       <r>  -40.5305    1.0000 </r>
       <r>  -40.5277    1.0000 </r>
       <r>  -40.4348    1.0000 </r>
       <r>  -40.4099    1.0000 </r>
       <r>  -40.4072    1.0000 </r>
       <r>    2.6547    1.0000 </r>
[...]
       <r>  -40.4103    1.0000 </r>
       <r>    3.5816    1.0000 </r>
       <r>    4.6522    1.0000 </r>
       <r>    4.7926    1.0000 </r>
       <r>    4.7935    1.0000 </r>
       <r>    4.9318    1.0000 </r>
       <r>    4.9381    1.0000 </r>
       <r>    5.2088    1.0000 </r>
       <r>    6.0247    1.0000 </r>
       <r>    6.8223    1.0000 </r>
       <r>    6.9055    1.0000 </r>
       <r>    7.1332    1.0000 </r>
       <r>    7.1403    1.0000 </r>
       <r>    7.3055    1.0000 </r>
       <r>    7.6058    1.0000 </r>
       <r>    8.2813    1.0000 </r>
       <r>    8.3599    1.0000 </r>
       <r>    8.6076    1.0000 </r>
       <r>    8.6117    1.0000 </r>
       <r>    8.8457    1.0000 </r>
       <r>    8.8595    1.0000 </r>
       <r>    9.0365    0.9878 </r>
       <r>   11.9645    0.0000 </r>
       <r>   11.9722    0.0000 </r>
       <r>   16.1810    0.0000 </r>
       <r>   17.1572    0.0000 </r>
       <r>   19.7867    0.0000 </r>
      </set>
      <set comment="kpoint 169">
       <r>  -40.6873    1.0000 </r>
       <r>  -40.6713    1.0000 </r>
       <r>  -40.6672    1.0000 </r>
       <r>  -40.6389    1.0000 </r>
       <r>  -40.5752    1.0000 </r>
       <r>  -40.5590    1.0000 </r>
       <r>  -40.5303    1.0000 </r>
       <r>  -40.5049    1.0000 </r>
       <r>  -40.5029    1.0000 </r>
       <r>  -40.4856    1.0000 </r>
       <r>  -40.4617    1.0000 </r>
       <r>  -40.4212    1.0000 </r>
       <r>    4.1069    1.0000 </r>
       <r>    4.9015    1.0000 </r>
       <r>    5.0113    1.0000 </r>
       <r>    5.1321    1.0000 </r>
       <r>    5.1545    1.0000 </r>
       <r>    5.2804    1.0000 </r>
       <r>    5.5284    1.0000 </r>
       <r>    5.8556    1.0000 </r>
       <r>    6.4580    1.0000 </r>
       <r>    6.7253    1.0000 </r>
       <r>    6.7820    1.0000 </r>
       <r>    6.7951    1.0000 </r>
       <r>    7.1407    1.0000 </r>
       <r>    7.5471    1.0000 </r>
       <r>    8.0184    1.0000 </r>
       <r>    8.2612    1.0000 </r>
       <r>    8.3957    1.0000 </r>
       <r>    8.4031    1.0000 </r>
       <r>    8.7020    1.0000 </r>
       <r>    8.8477    1.0000 </r>
       <r>    8.9165    1.0000 </r>
       <r>   10.7484    0.0000 </r>
       <r>   12.9523    0.0000 </r>
       <r>   15.9698    0.0000 </r>
       <r>   17.3076    0.0000 </r>
       <r>   19.8761    0.0000 </r>
      </set>
      <set comment="kpoint 170">
       <r>  -40.6746    1.0000 </r>
       <r>  -40.6597    1.0000 </r>
       <r>  -40.6380    1.0000 </r>
       <r>  -40.6372    1.0000 </r>
       <r>  -40.6053    1.0000 </r>
       <r>  -40.6011    1.0000 </r>
       <r>  -40.5080    1.0000 </r>
       <r>  -40.5016    1.0000 </r>
       <r>  -40.4989    1.0000 </r>
       <r>  -40.4842    1.0000 </r>
       <r>  -40.4616    1.0000 </r>
       <r>  -40.4375    1.0000 </r>
       <r>    4.6598    1.0000 </r>
       <r>    5.0278    1.0000 </r>
       <r>    5.2369    1.0000 </r>
       <r>    5.3690    1.0000 </r>
       <r>    5.4185    1.0000 </r>
       <r>    5.6218    1.0000 </r>
       <r>    5.7238    1.0000 </r>
       <r>    5.7445    1.0000 </r>
       <r>    5.9354    1.0000 </r>
       <r>    6.2426    1.0000 </r>
       <r>    6.4962    1.0000 </r>
       <r>    6.6005    1.0000 </r>
       <r>    7.4929    1.0000 </r>
       <r>    7.7264    1.0000 </r>
       <r>    7.8510    1.0000 </r>
       <r>    7.9249    1.0000 </r>
       <r>    7.9507    1.0000 </r>
       <r>    8.0702    1.0000 </r>
       <r>    8.8472    1.0000 </r>
       <r>    8.8662    1.0000 </r>
       <r>    9.1702    0.6407 </r>
       <r>    9.8218    0.0000 </r>
       <r>   13.9284    0.0000 </r>
       <r>   14.9147    0.0000 </r>
       <r>   18.5397    0.0000 </r>
       <r>   19.8048    0.0000 </r>
      </set>
     </set>
    </set>
   </array>
  </eigenvalues>
  <separator name="orbital magnetization" >
   <v name="MAGDIPOLOUT">      0.00000000      0.00000000      0.00000000</v>
  </separator>
  <dos>
   <i name="efermi">      9.19565213 </i>
   <total>
    <array>
     <dimension dim="1">gridpoints</dimension>
     <dimension dim="2">spin</dimension>
     <field>energy</field>
     <field>total</field>
     <field>integrated</field>
     <set>
      <set comment="spin 1">
       <r>   -43.8597     0.0000     0.0000 </r>
       <r>   -43.6331     0.0000     0.0000 </r>
       <r>   -43.4065     0.0000     0.0000 </r>
       <r>   -43.1799     0.0000     0.0000 </r>
       <r>   -42.9533     0.0000     0.0000 </r>
       <r>   -42.7267     0.0000     0.0000 </r>
       <r>   -42.5001     0.0000     0.0000 </r>
       <r>   -42.2735     0.0000     0.0000 </r>
       <r>   -42.0469     0.0000     0.0000 </r>
       <r>   -41.8203     0.0000     0.0000 </r>
       <r>   -41.5937     0.0000     0.0000 </r>
       <r>   -41.3671     0.0000     0.0000 </r>
       <r>   -41.1405     0.0000     0.0000 </r>
       <r>   -40.9139     0.0650     0.0147 </r>
       <r>   -40.6873    17.8054     4.0493 </r>
       <r>   -40.4608    63.9997    18.5512 </r>
       <r>   -40.2342    23.9967    23.9887 </r>
       <r>   -40.0076     0.0498    24.0000 </r>
       <r>   -39.7810     0.0000    24.0000 </r>
       <r>   -39.5544     0.0000    24.0000 </r>
       <r>   -39.3278     0.0000    24.0000 </r>
       <r>   -39.1012     0.0000    24.0000 </r>
       <r>   -38.8746     0.0000    24.0000 </r>
       <r>   -38.6480     0.0000    24.0000 </r>
       <r>   -38.4214     0.0000    24.0000 </r>
       <r>   -38.1948     0.0000    24.0000 </r>
       <r>   -37.9682     0.0000    24.0000 </r>
       <r>   -37.7416     0.0000    24.0000 </r>
       <r>   -37.5150     0.0000    24.0000 </r>
       <r>   -37.2884     0.0000    24.0000 </r>
       <r>   -37.0619     0.0000    24.0000 </r>
       <r>   -36.8353     0.0000    24.0000 </r>
       <r>   -36.6087     0.0000    24.0000 </r>
       <r>   -36.3821     0.0000    24.0000 </r>
       <r>   -36.1555     0.0000    24.0000 </r>
       <r>   -35.9289     0.0000    24.0000 </r>
       <r>   -35.7023     0.0000    24.0000 </r>
       <r>   -35.4757     0.0000    24.0000 </r>
       <r>   -35.2491     0.0000    24.0000 </r>
       <r>   -35.0225     0.0000    24.0000 </r>
       <r>   -34.7959     0.0000    24.0000 </r>
       <r>   -34.5693     0.0000    24.0000 </r>
       <r>   -34.3427     0.0000    24.0000 </r>
       <r>   -34.1161     0.0000    24.0000 </r>
       <r>   -33.8895     0.0000    24.0000 </r>
       <r>   -33.6629     0.0000    24.0000 </r>
       <r>   -33.4364     0.0000    24.0000 </r>
       <r>   -33.2098     0.0000    24.0000 </r>
       <r>   -32.9832     0.0000    24.0000 </r>
       <r>   -32.7566     0.0000    24.0000 </r>
       <r>   -32.5300     0.0000    24.0000 </r>
       <r>   -32.3034     0.0000    24.0000 </r>
       <r>   -32.0768     0.0000    24.0000 </r>
       <r>   -31.8502     0.0000    24.0000 </r>
       <r>   -31.6236     0.0000    24.0000 </r>
       <r>   -31.3970     0.0000    24.0000 </r>
       <r>   -31.1704     0.0000    24.0000 </r>
       <r>   -30.9438     0.0000    24.0000 </r>
       <r>   -30.7172     0.0000    24.0000 </r>
       <r>   -30.4906     0.0000    24.0000 </r>
       <r>   -30.2640     0.0000    24.0000 </r>
       <r>   -30.0375     0.0000    24.0000 </r>
       <r>   -29.8109     0.0000    24.0000 </r>
       <r>   -29.5843     0.0000    24.0000 </r>
       <r>   -29.3577     0.0000    24.0000 </r>
       <r>   -29.1311     0.0000    24.0000 </r>
       <r>   -28.9045     0.0000    24.0000 </r>
       <r>   -28.6779     0.0000    24.0000 </r>
       <r>   -28.4513     0.0000    24.0000 </r>
       <r>   -28.2247     0.0000    24.0000 </r>
       <r>   -27.9981     0.0000    24.0000 </r>
       <r>   -27.7715     0.0000    24.0000 </r>
       <r>   -27.5449     0.0000    24.0000 </r>
       <r>   -27.3183     0.0000    24.0000 </r>
       <r>   -27.0917     0.0000    24.0000 </r>
       <r>   -26.8651     0.0000    24.0000 </r>
       <r>   -26.6386     0.0000    24.0000 </r>
       <r>   -26.4120     0.0000    24.0000 </r>
       <r>   -26.1854     0.0000    24.0000 </r>
       <r>   -25.9588     0.0000    24.0000 </r>
       <r>   -25.7322     0.0000    24.0000 </r>
       <r>   -25.5056     0.0000    24.0000 </r>
       <r>   -25.2790     0.0000    24.0000 </r>
       <r>   -25.0524     0.0000    24.0000 </r>
       <r>   -24.8258     0.0000    24.0000 </r>
       <r>   -24.5992     0.0000    24.0000 </r>
       <r>   -24.3726     0.0000    24.0000 </r>
       <r>   -24.1460     0.0000    24.0000 </r>
       <r>   -23.9194     0.0000    24.0000 </r>
       <r>   -23.6928     0.0000    24.0000 </r>
       <r>   -23.4662     0.0000    24.0000 </r>
       <r>   -23.2397     0.0000    24.0000 </r>
       <r>   -23.0131     0.0000    24.0000 </r>
       <r>   -22.7865     0.0000    24.0000 </r>
       <r>   -22.5599     0.0000    24.0000 </r>
       <r>   -22.3333     0.0000    24.0000 </r>
       <r>   -22.1067     0.0000    24.0000 </r>
       <r>   -21.8801     0.0000    24.0000 </r>
       <r>   -21.6535     0.0000    24.0000 </r>
       <r>   -21.4269     0.0000    24.0000 </r>
       <r>   -21.2003     0.0000    24.0000 </r>
       <r>   -20.9737     0.0000    24.0000 </r>
       <r>   -20.7471     0.0000    24.0000 </r>
       <r>   -20.5205     0.0000    24.0000 </r>
       <r>   -20.2939     0.0000    24.0000 </r>
       <r>   -20.0673     0.0000    24.0000 </r>
       <r>   -19.8408     0.0000    24.0000 </r>
       <r>   -19.6142     0.0000    24.0000 </r>
       <r>   -19.3876     0.0000    24.0000 </r>
       <r>   -19.1610     0.0000    24.0000 </r>
       <r>   -18.9344     0.0000    24.0000 </r>
       <r>   -18.7078     0.0000    24.0000 </r>
       <r>   -18.4812     0.0000    24.0000 </r>
       <r>   -18.2546     0.0000    24.0000 </r>
       <r>   -18.0280     0.0000    24.0000 </r>
       <r>   -17.8014     0.0000    24.0000 </r>
       <r>   -17.5748     0.0000    24.0000 </r>
       <r>   -17.3482     0.0000    24.0000 </r>
       <r>   -17.1216     0.0000    24.0000 </r>
       <r>   -16.8950     0.0000    24.0000 </r>
       <r>   -16.6684     0.0000    24.0000 </r>
       <r>   -16.4419     0.0000    24.0000 </r>
       <r>   -16.2153     0.0000    24.0000 </r>
       <r>   -15.9887     0.0000    24.0000 </r>
       <r>   -15.7621     0.0000    24.0000 </r>
       <r>   -15.5355     0.0000    24.0000 </r>
       <r>   -15.3089     0.0000    24.0000 </r>
       <r>   -15.0823     0.0000    24.0000 </r>
       <r>   -14.8557     0.0000    24.0000 </r>
       <r>   -14.6291     0.0000    24.0000 </r>
       <r>   -14.4025     0.0000    24.0000 </r>
       <r>   -14.1759     0.0000    24.0000 </r>
       <r>   -13.9493     0.0000    24.0000 </r>
       <r>   -13.7227     0.0000    24.0000 </r>
       <r>   -13.4961     0.0000    24.0000 </r>
       <r>   -13.2695     0.0000    24.0000 </r>
       <r>   -13.0429     0.0000    24.0000 </r>
       <r>   -12.8164     0.0000    24.0000 </r>
       <r>   -12.5898     0.0000    24.0000 </r>
       <r>   -12.3632     0.0000    24.0000 </r>
       <r>   -12.1366     0.0000    24.0000 </r>
       <r>   -11.9100     0.0000    24.0000 </r>
       <r>   -11.6834     0.0000    24.0000 </r>
       <r>   -11.4568     0.0000    24.0000 </r>
       <r>   -11.2302     0.0000    24.0000 </r>
       <r>   -11.0036     0.0000    24.0000 </r>
       <r>   -10.7770     0.0000    24.0000 </r>
       <r>   -10.5504     0.0000    24.0000 </r>
       <r>   -10.3238     0.0000    24.0000 </r>
       <r>   -10.0972     0.0000    24.0000 </r>
       <r>    -9.8706     0.0000    24.0000 </r>
       <r>    -9.6440     0.0000    24.0000 </r>
       <r>    -9.4175     0.0000    24.0000 </r>
       <r>    -9.1909     0.0000    24.0000 </r>
       <r>    -8.9643     0.0000    24.0000 </r>
       <r>    -8.7377     0.0000    24.0000 </r>
       <r>    -8.5111     0.0000    24.0000 </r>
       <r>    -8.2845     0.0000    24.0000 </r>
       <r>    -8.0579     0.0000    24.0000 </r>
       <r>    -7.8313     0.0000    24.0000 </r>
       <r>    -7.6047     0.0000    24.0000 </r>
       <r>    -7.3781     0.0000    24.0000 </r>
       <r>    -7.1515     0.0000    24.0000 </r>
       <r>    -6.9249     0.0000    24.0000 </r>
       <r>    -6.6983     0.0000    24.0000 </r>
       <r>    -6.4717     0.0000    24.0000 </r>
       <r>    -6.2451     0.0000    24.0000 </r>
       <r>    -6.0186     0.0000    24.0000 </r>
       <r>    -5.7920     0.0000    24.0000 </r>
       <r>    -5.5654     0.0000    24.0000 </r>
       <r>    -5.3388     0.0000    24.0000 </r>
       <r>    -5.1122     0.0000    24.0000 </r>
       <r>    -4.8856     0.0000    24.0000 </r>
       <r>    -4.6590     0.0000    24.0000 </r>
       <r>    -4.4324     0.0000    24.0000 </r>
       <r>    -4.2058     0.0000    24.0000 </r>
       <r>    -3.9792     0.0000    24.0000 </r>
       <r>    -3.7526     0.0000    24.0000 </r>
       <r>    -3.5260     0.0000    24.0000 </r>
       <r>    -3.2994     0.0000    24.0000 </r>
       <r>    -3.0728     0.0000    24.0000 </r>
       <r>    -2.8462     0.0000    24.0000 </r>
       <r>    -2.6197     0.0000    24.0000 </r>
       <r>    -2.3931     0.0000    24.0000 </r>
       <r>    -2.1665     0.0000    24.0000 </r>
       <r>    -1.9399     0.0000    24.0000 </r>
       <r>    -1.7133     0.0000    24.0000 </r>
       <r>    -1.4867     0.0000    24.0000 </r>
       <r>    -1.2601     0.0000    24.0000 </r>
       <r>    -1.0335     0.0000    24.0000 </r>
       <r>    -0.8069     0.0000    24.0000 </r>
       <r>    -0.5803     0.0000    24.0000 </r>
       <r>    -0.3537     0.0000    24.0000 </r>
       <r>    -0.1271     0.0000    24.0000 </r>
       <r>     0.0995     0.0000    24.0000 </r>
       <r>     0.3261     0.0000    24.0000 </r>
       <r>     0.5527     0.0000    24.0000 </r>
       <r>     0.7792     0.0000    24.0000 </r>
       <r>     1.0058     0.0000    24.0000 </r>
       <r>     1.2324     0.0000    24.0000 </r>
       <r>     1.4590     0.0000    24.0000 </r>
       <r>     1.6856     0.0000    24.0000 </r>
       <r>     1.9122     0.0000    24.0000 </r>
       <r>     2.1388     0.0004    24.0001 </r>
       <r>     2.3654     0.0448    24.0102 </r>
       <r>     2.5920     0.1566    24.0457 </r>
       <r>     2.8186     0.2195    24.0955 </r>
       <r>     3.0452     0.2968    24.1627 </r>
       <r>     3.2718     0.3451    24.2409 </r>
       <r>     3.4984     0.4534    24.3437 </r>
       <r>     3.7250     0.4632    24.4486 </r>
       <r>     3.9516     0.7469    24.6179 </r>
       <r>     4.1781     1.7690    25.0187 </r>
       <r>     4.4047     4.6172    26.0649 </r>
       <r>     4.6313     7.3003    27.7191 </r>
       <r>     4.8579     9.5696    29.8876 </r>
       <r>     5.0845     8.4311    31.7980 </r>
       <r>     5.3111     7.2310    33.4365 </r>
       <r>     5.5377     5.7281    34.7344 </r>
       <r>     5.7643     6.7126    36.2555 </r>
       <r>     5.9909     6.8620    37.8104 </r>
       <r>     6.2175     6.8927    39.3722 </r>
       <r>     6.4441     7.8275    41.1459 </r>
       <r>     6.6707     9.4377    43.2844 </r>
       <r>     6.8973    12.7548    46.1745 </r>
       <r>     7.1239     7.9862    47.9842 </r>
       <r>     7.3505     6.6787    49.4975 </r>
       <r>     7.5771     6.9441    51.0710 </r>
       <r>     7.8036     7.7219    52.8207 </r>
       <r>     8.0302     8.4652    54.7389 </r>
       <r>     8.2568     7.3405    56.4022 </r>
       <r>     8.4834     6.8211    57.9478 </r>
       <r>     8.7100     6.5230    59.4259 </r>
       <r>     8.9366     7.9408    61.2252 </r>
       <r>     9.1632    10.7013    63.6501 </r>
       <r>     9.3898     7.7665    65.4099 </r>
       <r>     9.6164     2.3358    65.9392 </r>
       <r>     9.8430     0.9176    66.1471 </r>
       <r>    10.0696     0.8148    66.3317 </r>
       <r>    10.2962     1.0503    66.5697 </r>
       <r>    10.5228     1.0912    66.8170 </r>
       <r>    10.7494     1.0072    67.0452 </r>
       <r>    10.9760     0.9043    67.2501 </r>
       <r>    11.2025     0.9797    67.4721 </r>
       <r>    11.4291     0.9730    67.6926 </r>
       <r>    11.6557     1.0753    67.9363 </r>
       <r>    11.8823     1.0690    68.1785 </r>
       <r>    12.1089     1.1140    68.4309 </r>
       <r>    12.3355     0.8645    68.6268 </r>
       <r>    12.5621     0.9969    68.8527 </r>
       <r>    12.7887     0.9523    69.0685 </r>
       <r>    13.0153     1.0659    69.3100 </r>
       <r>    13.2419     1.1814    69.5777 </r>
       <r>    13.4685     0.9329    69.7891 </r>
       <r>    13.6951     0.9446    70.0031 </r>
       <r>    13.9217     0.8474    70.1951 </r>
       <r>    14.1483     0.7763    70.3710 </r>
       <r>    14.3749     0.7178    70.5337 </r>
       <r>    14.6014     1.1490    70.7940 </r>
       <r>    14.8280     0.7869    70.9723 </r>
       <r>    15.0546     0.5277    71.0919 </r>
       <r>    15.2812     0.7305    71.2574 </r>
       <r>    15.5078     0.6632    71.4077 </r>
       <r>    15.7344     0.3742    71.4925 </r>
       <r>    15.9610     0.4969    71.6051 </r>
       <r>    16.1876     0.6719    71.7574 </r>
       <r>    16.4142     1.2930    72.0503 </r>
       <r>    16.6408     1.4806    72.3858 </r>
       <r>    16.8674     1.4810    72.7214 </r>
       <r>    17.0940     1.1334    72.9782 </r>
       <r>    17.3206     1.1268    73.2336 </r>
       <r>    17.5472     0.9540    73.4497 </r>
       <r>    17.7738     1.1829    73.7178 </r>
       <r>    18.0003     1.0696    73.9601 </r>
       <r>    18.2269     0.8417    74.1508 </r>
       <r>    18.4535     0.6748    74.3038 </r>
       <r>    18.6801     0.7454    74.4726 </r>
       <r>    18.9067     0.9122    74.6794 </r>
       <r>    19.1333     0.6789    74.8332 </r>
       <r>    19.3599     0.7678    75.0071 </r>
       <r>    19.5865     0.7146    75.1691 </r>
       <r>    19.8131     1.1872    75.4381 </r>
       <r>    20.0397     1.0510    75.6762 </r>
       <r>    20.2663     0.7206    75.8395 </r>
       <r>    20.4929     0.5206    75.9575 </r>
       <r>    20.7195     0.1003    75.9802 </r>
       <r>    20.9461     0.0416    75.9896 </r>
       <r>    21.1727     0.0447    75.9998 </r>
       <r>    21.3992     0.0011    76.0000 </r>
       <r>    21.6258     0.0000    76.0000 </r>
       <r>    21.8524     0.0000    76.0000 </r>
       <r>    22.0790     0.0000    76.0000 </r>
       <r>    22.3056     0.0000    76.0000 </r>
       <r>    22.5322     0.0000    76.0000 </r>
       <r>    22.7588     0.0000    76.0000 </r>
       <r>    22.9854     0.0000    76.0000 </r>
       <r>    23.2120     0.0000    76.0000 </r>
       <r>    23.4386     0.0000    76.0000 </r>
       <r>    23.6652     0.0000    76.0000 </r>
       <r>    23.8918     0.0000    76.0000 </r>
       <r>    24.1184     0.0000    76.0000 </r>
      </set>
     </set>
    </array>
   </total>
  </dos>
 </calculation>
 <structure name="finalpos" >
  <crystal>
   <varray name="basis" >
    <v>       3.92700000       0.00000000       0.00000000 </v>
    <v>       0.00000000       3.92700000       0.00000000 </v>
    <v>       0.00000000       0.00000000       3.92700000 </v>
   </varray>
   <i name="volume">     60.55955898 </i>
   <varray name="rec_basis" >
    <v>       0.25464731       0.00000000       0.00000000 </v>
    <v>       0.00000000       0.25464731       0.00000000 </v>
    <v>       0.00000000       0.00000000       0.25464731 </v>
   </varray>
  </crystal>
  <varray name="positions" >
   <v>       0.00254647       0.00000000       0.00000000 </v>
   <v>       0.00000000       0.50000000       0.50000000 </v>
   <v>       0.50000000       0.00000000       0.50000000 </v>
   <v>       0.50000000       0.50000000       0.00000000 </v>
  </varray>
 </structure>
</modeling>
