 vasp.5.3.3 18Dez12 (build Jun 21 2016 14:15:03) complex                        
  
 executed on             LinuxIFC date 2017.10.10  16:16:28
 serial version


--------------------------------------------------------------------------------------------------------


 INCAR:
 POTCAR:    PAW_PBE Pd_pv 28Jan2005               
 POTCAR:    PAW_PBE Pd_pv 28Jan2005               
   VRHFIN =Pd: 4p5s4d                                                           
   LEXCH  = PE                                                                  
   EATOM  =  2621.5550 eV,  192.6789 Ry                                         
                                                                                
   TITEL  = PAW_PBE Pd_pv 28Jan2005                                             
   LULTRA =        F    use ultrasoft PP ?                                      
   IUNSCR =        1    unscreen: 0-lin 1-nonlin 2-no                           
   RPACOR =    2.250    partial core radius                                     
   POMASS =  106.420; ZVAL   =   16.000    mass and valenz                      
   RCORE  =    2.400    outmost cutoff radius                                   
   RWIGS  =    2.300; RWIGS  =    1.217    wigner-seitz radius (au A)           
   ENMAX  =  250.925; ENMIN  =  188.194 eV                                      
   ICORE  =        3    local potential                                         
   LCOR   =        T    correct aug charges                                     
   LPAW   =        T    paw PP                                                  
   EAUG   =  473.067                                                            
   DEXC   =    0.000                                                            
   RMAX   =    2.449    core radius for proj-oper                               
   RAUG   =    1.300    factor for augmentation sphere                          
   RDEP   =    2.405    radius for radial grids                                 
   RDEPT  =    1.966    core radius for aug-charge                              
                                                                                
   Atomic configuration                                                         
   11 entries                                                                   
     n  l   j            E        occ.                                          
     1  0  0.50    -24164.6632   2.0000                                         
     2  0  0.50     -3530.9218   2.0000                                         
     2  1  1.50     -3165.6822   6.0000                                         
     3  0  0.50      -639.4578   2.0000                                         
     3  1  1.50      -519.4532   6.0000                                         
     3  2  2.50      -328.9758  10.0000                                         
     4  0  0.50       -88.7014   2.0000                                         
     4  1  1.50       -54.4541   6.0000                                         
     4  2  2.50        -6.6878   9.0000                                         
     5  0  0.50        -4.3543   1.0000                                         
     4  3  2.50        -1.3606   0.0000                                         
   Description                                                                  
     l       E           TYP  RCUT    TYP  RCUT                                 
     1    -54.4540524     23  2.100                                             
     1      4.0817478     23  2.100                                             
     2     -6.6878326     23  2.400                                             
     2     -4.0817478     23  2.400                                             
     0     -4.3542962     23  2.400                                             
     0     13.6058260     23  2.400                                             
     3     -5.4423304     23  2.400                                             
  local pseudopotential read in
  partial core-charges read in
  partial kinetic energy density read in
  atomic valenz-charges read in
  non local Contribution for L=           1  read in
    real space projection operators read in
  non local Contribution for L=           1  read in
    real space projection operators read in
  non local Contribution for L=           2  read in
    real space projection operators read in
  non local Contribution for L=           2  read in
    real space projection operators read in
  non local Contribution for L=           0  read in
    real space projection operators read in
  non local Contribution for L=           0  read in
    real space projection operators read in
    PAW grid and wavefunctions read in
 
   number of l-projection  operators is LMAX  =           6
   number of lm-projection operators is LMMAX =          18
 
  PAW_PBE Pd_pv 28Jan2005               :
 energy of atom  1       EATOM=-2621.5550
 kinetic energy error for atom=    0.0092 (will be added to EATOM!!)
 
 
 POSCAR: Pd                                      
  positions in cartesian coordinates
  No initial velocities read in
 exchange correlation table for  LEXCH =        8
   RHO(1)=    0.500       N(1)  =     2000
   RHO(2)=  100.500       N(2)  =     4000
 


--------------------------------------------------------------------------------------------------------


 ion  position               nearest neighbor table
   1  0.002  0.000  0.000-   2 2.77   2 2.77   2 2.77   2 2.78   2 2.79   2 2.79
   2  0.500  0.500  0.500-   1 2.77   1 2.77   1 2.77   1 2.78   1 2.79   1 2.79
 

IMPORTANT INFORMATION: All symmetrisations will be switched off!
NOSYMM: (Re-)initialisation of all symmetry stuff for point group C_1.

 
 
 KPOINTS: Server version 2017.05.18. K-point grid 
  k-points in reciprocal lattice
Space group operators:
 irot       det(A)        alpha          n_x          n_y          n_z        tau_x        tau_y        tau_z
    1     1.000000     0.000000     1.000000     0.000000     0.000000     0.000000     0.000000     0.000000


--------------------------------------------------------------------------------------------------------




 Dimension of arrays:
   k-points           NKPTS =    328   k-points in BZ     NKDIM =    328   number of bands    NBANDS=     20
   number of dos      NEDOS =    301   number of ions     NIONS =      2
   non local maximal  LDIM  =      6   non local SUM 2l+1 LMDIM =     18
   total plane-waves  NPLWV =  46656
   max r-space proj   IRMAX =      1   max aug-charges    IRDMAX= 493633
   dimension x,y,z NGX =    36 NGY =   36 NGZ =   36
   dimension x,y,z NGXF=    72 NGYF=   72 NGZF=   72
   support grid    NGXF=   144 NGYF=  144 NGZF=  144
   ions per type =               2
 NGX,Y,Z   is equivalent  to a cutoff of  12.44, 12.44, 12.44 a.u.
 NGXF,Y,Z  is equivalent  to a cutoff of  24.89, 24.89, 24.89 a.u.


 I would recommend the setting:
   dimension x,y,z NGX =    35 NGY =   35 NGZ =   35
 SYSTEM =  unknown system                          
 POSCAR =  Pd                                      

 Startparameter for this run:
   NWRITE =      2    write-flag & timer
   PREC   = a         normal or accurate (medium, high low for compatibility)
   ISTART =      0    job   : 0-new  1-cont  2-samecut
   ICHARG =      2    charge: 1-file 2-atom 10-const
   ISPIN  =      1    spin polarized calculation?
   LNONCOLLINEAR =      F non collinear calculations
   LSORBIT =      F    spin-orbit coupling
   INIWAV =      1    electr: 0-lowe 1-rand  2-diag
   LASPH  =      F    aspherical Exc in radial PAW
   METAGGA=      F    non-selfconsistent MetaGGA calc.

 Electronic Relaxation 1
   ENCUT  =  500.0 eV  36.75 Ry    6.06 a.u.   8.77  8.77  8.77*2*pi/ulx,y,z
   ENINI  =  500.0     initial cutoff
   ENAUG  =  473.1 eV  augmentation charge cutoff
   NELM   =     60;   NELMIN=  2; NELMDL= -5     # of ELM steps 
   EDIFF  = 0.1E-07   stopping-criterion for ELM
   LREAL  =      F    real-space projection
   NLSPLINE    = F    spline interpolate recip. space projectors
   LCOMPAT=      F    compatible to vasp.4.4
   GGA_COMPAT  = T    GGA compatible to vasp.4.4-vasp.4.6
   LMAXPAW     = -100 max onsite density
   LMAXMIX     =    2 max onsite mixed and CHGCAR
   VOSKOWN=      0    Vosko Wilk Nusair interpolation
   ROPT   =    0.00000
 Ionic relaxation
   EDIFFG = 0.1E-06   stopping-criterion for IOM
   NSW    =      0    number of steps for IOM
   NBLOCK =      1;   KBLOCK =      1    inner block; outer block 
   IBRION =     -1    ionic relax: 0-MD 1-quasi-New 2-CG
   NFREE  =      0    steps in history (QN), initial steepest desc. (CG)
   ISIF   =      2    stress and relaxation
   IWAVPR =      0    prediction:  0-non 1-charg 2-wave 3-comb
   ISYM   =      0    0-nonsym 1-usesym 2-fastsym
   LCORR  =      T    Harris-Foulkes like correction to forces

   POTIM  = 0.5000    time-step for ionic-motion
   TEIN   =    0.0    initial temperature
   TEBEG  =    0.0;   TEEND  =   0.0 temperature during run
   SMASS  =  -3.00    Nose mass-parameter (am)
   estimated Nose-frequenzy (Omega)   =  0.10E-29 period in steps =****** mass=  -0.529E-27a.u.
   SCALEE = 1.0000    scale energy and forces
   NPACO  =    256;   APACO  = 16.0  distance and # of slots for P.C.
   PSTRESS=    0.0 pullay stress

  Mass of Ions in am
   POMASS = 106.42
  Ionic Valenz
   ZVAL   =  16.00
  Atomic Wigner-Seitz radii
   RWIGS  =  -1.00
  virtual crystal weights 
   VCA    =   1.00
   NELECT =      32.0000    total number of electrons
   NUPDOWN=      -1.0000    fix difference up-down

 DOS related values:
   EMIN   =  10.00;   EMAX   =-10.00  energy-range for DOS
   EFERMI =   0.00
   ISMEAR =     0;   SIGMA  =   0.10  broadening in eV -4-tet -1-fermi 0-gaus

 Electronic relaxation 2 (details)
   IALGO  =     38    algorithm
   LDIAG  =      T    sub-space diagonalisation (order eigenvalues)
   LSUBROT=      T    optimize rotation matrix (better conditioning)
   TURBO    =      0    0=normal 1=particle mesh
   IRESTART =      0    0=no restart 2=restart with 2 vectors
   NREBOOT  =      0    no. of reboots
   NMIN     =      0    reboot dimension
   EREF     =   0.00    reference energy to select bands
   IMIX   =      4    mixing-type and parameters
     AMIX     =   0.40;   BMIX     =  1.00
     AMIX_MAG =   1.60;   BMIX_MAG =  1.00
     AMIN     =   0.10
     WC   =   100.;   INIMIX=   1;  MIXPRE=   1;  MAXMIX= -45

 Intra band minimization:
   WEIMIN = 0.0000     energy-eigenvalue tresh-hold
   EBREAK =  0.13E-09  absolut break condition
   DEPER  =   0.30     relativ break condition  

   TIME   =   0.40     timestep for ELM

  volume/ion in A,a.u.               =      15.14       102.17
  Fermi-wavevector in a.u.,A,eV,Ry     =   1.667531  3.151177 37.833172  2.780660
  Thomas-Fermi vector in A             =   2.753537
 
 Write flags
   LWAVE  =      F    write WAVECAR
   LCHARG =      T    write CHGCAR
   LVTOT  =      F    write LOCPOT, total local potential
   LVHAR  =      F    write LOCPOT, Hartree potential only
   LELF   =      F    write electronic localiz. function (ELF)
   LORBIT =      0    0 simple, 1 ext, 2 COOP (PROOUT)


 Dipole corrections
   LMONO  =      F    monopole corrections only (constant potential shift)
   LDIPOL =      F    correct potential (dipole corrections)
   IDIPOL =      0    1-x, 2-y, 3-z, 4-all directions 
   EPSILON=  1.0000000 bulk dielectric constant

 Exchange correlation treatment:
   GGA     =    --    GGA type
   LEXCH   =     8    internal setting for exchange type
   VOSKOWN=      0    Vosko Wilk Nusair interpolation
   LHFCALC =     F    Hartree Fock is set to
   LHFONE  =     F    Hartree Fock one center treatment
   AEXX    =    0.0000 exact exchange contribution

 Linear response parameters
   LEPSILON=     F    determine dielectric tensor
   LRPA    =     F    only Hartree local field effects (RPA)
   LNABLA  =     F    use nabla operator in PAW spheres
   LVEL    =     F    velocity operator in full k-point grid
   LINTERFAST=   F  fast interpolation
   KINTER  =     0    interpolate to denser k-point grid
   CSHIFT  =0.1000    complex shift for real part using Kramers Kronig
   OMEGAMAX=  -1.0    maximum frequency
   DEG_THRESHOLD= 0.2000000E-02 threshold for treating states as degnerate
   RTIME   =    0.100 relaxation time in fs

 Orbital magnetization related:
   ORBITALMAG=     F  switch on orbital magnetization
   LCHIMAG   =     F  perturbation theory with respect to B field
   DQ        =  0.001000  dq finite difference perturbation B field



--------------------------------------------------------------------------------------------------------


 Static calculation
 charge density and potential will be updated during run
 non-spin polarized calculation
 Variant of blocked Davidson
 Davidson routine will perform the subspace rotation
 perform sub-space diagonalisation
    after iterative eigenvector-optimisation
 modified Broyden-mixing scheme, WC =      100.0
 initial mixing is a Kerker type mixing with AMIX =  0.4000 and BMIX =      1.0000
 Hartree-type preconditioning will be used
 using additional bands            4
 reciprocal scheme for non local part
 use partial core corrections
 calculate Harris-corrections to forces 
   (improved forces if not selfconsistent)
 use gradient corrections 
 use of overlap-Matrix (Vanderbilt PP)
 Gauss-broadening in eV      SIGMA  =   0.10


--------------------------------------------------------------------------------------------------------


  energy-cutoff  :      500.00
  volume of cell :       30.28
      direct lattice vectors                 reciprocal lattice vectors
     3.927000000  1.963500000  1.963500000     0.381970970 -0.127323657 -0.127323657
     1.963500000  3.927000000  1.963500000    -0.127323657  0.381970970 -0.127323657
     1.963500000  1.963500000  3.927000000    -0.127323657 -0.127323657  0.381970970

  length of vectors
     4.809573110  4.809573110  4.809573110     0.422284796  0.422284796  0.422284796


 
 k-points in units of 2pi/SCALE and weight: Server version 2017.05.18. K-point grid 
   0.00000000  0.00000000  0.00000000       0.002
  -0.14209709  0.01341272  0.27155901       0.003
  -0.15687052  0.15414910  0.16114704       0.003
  -0.17164395  0.29488548  0.05073508       0.003
  -0.05909373  0.05365088  0.06764677       0.003
  -0.07386716  0.19438726 -0.04276520       0.003
  -0.21596425  0.20779998  0.22879381       0.003
  -0.10341402 -0.03343461  0.24570550       0.003
  -0.11818746  0.10730177  0.13529353       0.003
  -0.13296089  0.24803815  0.02488157       0.003
  -0.02041066  0.00680355  0.04179326       0.003
  -0.16250775  0.02021628  0.31335227       0.003
  -0.17728118  0.16095265  0.20294030       0.003
  -0.19205462  0.30168903  0.09252834       0.003
  -0.07950439  0.06045444  0.10944003       0.003
  -0.09427782  0.20119082 -0.00097194       0.003
  -0.10905125  0.34192719 -0.11138390       0.003
  -0.12382469 -0.02663105  0.28749876       0.003
  -0.13859812  0.11410532  0.17708680       0.003
  -0.15337155  0.25484170  0.06667483       0.003
  -0.04082133  0.01360711  0.08358652       0.003
  -0.05559476  0.15434349 -0.02682544       0.003
  -0.19769185  0.16775621  0.24473356       0.003
  -0.08514162 -0.07347839  0.26164525       0.003
  -0.09991505  0.06725799  0.15123329       0.003
  -0.11468848  0.20799437  0.04082133       0.003
  -0.12946192  0.34873075 -0.06959064       0.003
  -0.14423535 -0.01982750  0.32929202       0.003
  -0.15900878  0.12090888  0.21888006       0.003
  -0.17378221  0.26164525  0.10846809       0.003
  -0.06123199  0.02041066  0.12537978       0.003
  -0.07600542  0.16114704  0.01496782       0.003
  -0.09077885  0.30188342 -0.09544415       0.003
  -0.10555228 -0.06667483  0.30343852       0.003
  -0.12032572  0.07406155  0.19302655       0.003
  -0.13509915  0.21479792  0.08261459       0.003
  -0.02254892 -0.02643667  0.09952628       0.003
  -0.03732235  0.11429971 -0.01088569       0.003
  -0.17941944  0.12771243  0.26067332       0.003
  -0.19419287  0.26844881  0.15026135       0.003
  -0.08164265  0.02721422  0.16717305       0.003
  -0.09641608  0.16795059  0.05676108       0.003
  -0.11118951  0.30868697 -0.05365088       0.003
  -0.12596295 -0.05987128  0.34523178       0.003
  -0.14073638  0.08086510  0.23481981       0.003
  -0.15550981  0.22160148  0.12440785       0.003
  -0.04295958 -0.01963311  0.14131954       0.003
  -0.05773302  0.12110326  0.03090757       0.003
  -0.07250645  0.26183964 -0.07950439       0.003
  -0.08727988 -0.10671861  0.31937827       0.003
  -0.10205331  0.03401777  0.20896631       0.003
  -0.11682674  0.17475415  0.09855434       0.003
  -0.13160018  0.31549053 -0.01185762       0.003
  -0.01904995  0.07425593  0.00505407       0.003
  -0.16114704  0.08766866  0.27661307       0.003
  -0.17592047  0.22840503  0.16620111       0.003
  -0.06337025 -0.01282956  0.18311280       0.003
  -0.07814368  0.12790682  0.07270084       0.003
  -0.09291711  0.26864320 -0.03771113       0.003
   0.01963311  0.02740860 -0.02079944       0.003
  -0.12246398  0.04082133  0.25075957       0.003
  -0.13723741  0.18155770  0.14034760       0.003
  -0.02468718 -0.05967689  0.15725930       0.003
  -0.03946061  0.08105949  0.04684733       0.003
  -0.05423405  0.22179587 -0.06356463       0.003
  -0.19633113  0.23520859  0.20799437       0.003
  -0.08378091 -0.00602601  0.22490606       0.003
  -0.09855434  0.13471037  0.11449410       0.003
  -0.11332777  0.27544675  0.00408213       0.003
  -0.00077755  0.03421216  0.02099382       0.003
  -0.14287464  0.04762488  0.29255283       0.003
  -0.15764807  0.18836126  0.18214086       0.003
  -0.04509784 -0.05287334  0.19905256       0.003
  -0.05987128  0.08786304  0.08864059       0.003
  -0.07464471  0.22859942 -0.02177137       0.003
   0.03790552 -0.01263517 -0.00485968       0.003
  -0.10419157  0.00077755  0.26669932       0.003
  -0.11896500  0.14151393  0.15628736       0.003
  -0.13373844  0.28225030  0.04587539       0.003
  -0.02118821  0.04101571  0.06278709       0.003
  -0.03596164  0.18175209 -0.04762488       0.003
  -0.17805873  0.19516481  0.22393413       0.003
  -0.06550851 -0.04606978  0.24084582       0.003
  -0.08028194  0.09466660  0.13043385       0.003
  -0.09505537  0.23540297  0.02002189       0.003
   0.01749485 -0.00583162  0.03693358       0.003
  -0.12460224  0.00758110  0.30849259       0.003
  -0.13937567  0.14831748  0.19808062       0.003
  -0.02682544 -0.09291711  0.21499231       0.003
  -0.04159887  0.04781927  0.10458035       0.003
  -0.05637231  0.18855564 -0.00583162       0.003
  -0.07114574  0.32929202 -0.11624358       0.003
  -0.08591917 -0.03926623  0.28263908       0.003
  -0.10069260  0.10147015  0.17222711       0.003
  -0.11546603  0.24220653  0.06181515       0.003
  -0.00291581  0.00097194  0.07872684       0.003
  -0.01768924  0.14170831 -0.03168512       0.003
  -0.15978633  0.15512104  0.23987388       0.003
  -0.04723610 -0.08611356  0.25678557       0.003
  -0.06200954  0.05462282  0.14637361       0.003
  -0.07678297  0.19535920  0.03596164       0.003
  -0.09155640  0.33609558 -0.07445032       0.003
   0.02099382  0.09486098 -0.05753863       0.003
  -0.12110326  0.10827370  0.21402038       0.003
  -0.13587670  0.24901008  0.10360841       0.003
  -0.02332647  0.00777549  0.12052010       0.003
  -0.03809990  0.14851187  0.01010814       0.003
  -0.05287334  0.28924825 -0.10030383       0.003
  -0.06764677 -0.07931000  0.29857883       0.003
  -0.08242020  0.06142637  0.18816687       0.003
  -0.09719363  0.20216275  0.07775490       0.003
   0.01535659 -0.03907184  0.09466660       0.003
   0.00058316  0.10166454 -0.01574537       0.003
  -0.14151393  0.11507726  0.25581364       0.003
  -0.15628736  0.25581364  0.14540167       0.003
  -0.04373713  0.01457904  0.16231336       0.003
  -0.05851057  0.15531542  0.05190140       0.003
  -0.07328400  0.29605180 -0.05851057       0.003
   0.03926623  0.05481721 -0.04159887       0.003
  -0.10283086  0.06822993  0.22996013       0.003
  -0.11760429  0.20896631  0.11954817       0.003
  -0.00505407 -0.03226829  0.13645986       0.003
  -0.01982750  0.10846809  0.02604789       0.003
  -0.03460093  0.24920447 -0.08436407       0.003
  -0.04937436 -0.11935378  0.31451859       0.003
  -0.06414780  0.02138260  0.20410663       0.003
  -0.07892123  0.16211898  0.09369466       0.003
  -0.09369466  0.30285535 -0.01671730       0.003
   0.01885556  0.06162076  0.00019439       0.003
  -0.12324152  0.07503348  0.27175339       0.003
  -0.13801496  0.21576986  0.16134143       0.003
  -0.02546473 -0.02546473  0.17825312       0.003
  -0.04023816  0.11527165  0.06784115       0.003
  -0.05501160  0.25600802 -0.04257081       0.003
   0.05753863  0.01477343 -0.02565912       0.003
  -0.08455846  0.02818615  0.24589989       0.003
  -0.09933189  0.16892253  0.13548792       0.003
   0.01321833 -0.07231206  0.15239961       0.003
  -0.00155510  0.06842432  0.04198765       0.003
  -0.01632853  0.20916069 -0.06842432       0.003
  -0.15842562  0.22257342  0.20313469       0.003
  -0.04587539 -0.01866118  0.22004638       0.003
  -0.06064883  0.12207520  0.10963442       0.003
  -0.07542226  0.26281158 -0.00077755       0.003
   0.03712797  0.02157699  0.01613414       0.003
  -0.10496912  0.03498971  0.28769315       0.003
  -0.11974255  0.17572608  0.17728118       0.003
  -0.00719233 -0.06550851  0.19419287       0.003
  -0.02196576  0.07522787  0.08378091       0.003
  -0.03673919  0.21596425 -0.02663105       0.003
   0.07581103 -0.02527034 -0.00971936       0.003
  -0.06628606 -0.01185762  0.26183964       0.003
  -0.08105949  0.12887875  0.15142768       0.003
  -0.09583292  0.26961513  0.04101571       0.003
   0.01671730  0.02838054  0.05792740       0.003
   0.00194387  0.16911692 -0.05248456       0.003
  -0.14015322  0.18252964  0.21907444       0.003
  -0.02760299 -0.05870495  0.23598614       0.003
  -0.04237642  0.08203142  0.12557417       0.003
  -0.05714986  0.22276780  0.01516221       0.003
   0.05540037 -0.01846679  0.03207390       0.003
   0.04062694  0.12226959 -0.07833807       0.003
  -0.10147015  0.13568231  0.19322094       0.003
   0.01108007 -0.10555228  0.21013263       0.003
  -0.00369336  0.03518409  0.09972067       0.003
  -0.01846679  0.17592047 -0.01069130       0.003
  -0.03324022  0.31665685 -0.12110326       0.003
  -0.04801365 -0.05190140  0.27777940       0.003
  -0.06278709  0.08883498  0.16736743       0.003
  -0.07756052  0.22957136  0.05695547       0.003
   0.03498971 -0.01166324  0.07386716       0.003
   0.02021628  0.12907314 -0.03654481       0.003
  -0.12188081  0.14248586  0.23501420       0.003
  -0.00933059 -0.09874873  0.25192589       0.003
  -0.02410402  0.04198765  0.14151393       0.003
  -0.03887745  0.18272403  0.03110196       0.003
   0.07367277 -0.05851057  0.04801365       0.003
   0.05889934  0.08222581 -0.06239831       0.003
  -0.08319775  0.09563853  0.20916069       0.003
  -0.09797118  0.23637491  0.09874873       0.003
   0.01457904 -0.00485968  0.11566042       0.003
  -0.00019439  0.13587670  0.00524846       0.003
  -0.01496782  0.27661307 -0.10516351       0.003
  -0.02974125 -0.09194518  0.29371915       0.003
  -0.04451468  0.04879120  0.18330719       0.003
  -0.05928811  0.18952758  0.07289522       0.003
   0.05326211 -0.05170701  0.08980692       0.003
   0.03848868  0.08902937 -0.02060505       0.003
  -0.10360841  0.10244209  0.25095396       0.003
  -0.11838184  0.24317846  0.14054199       0.003
  -0.00583162  0.00194387  0.15745368       0.003
  -0.02060505  0.14268025  0.04704172       0.003
  -0.03537848  0.28341663 -0.06337025       0.003
   0.07717174  0.04218204 -0.04645856       0.003
  -0.06492535  0.05559476  0.22510045       0.003
  -0.07969878  0.19633113  0.11468848       0.003
   0.03285145 -0.04490346  0.13160018       0.003
   0.01807802  0.09583292  0.02118821       0.003
   0.00330458  0.23656930 -0.08922375       0.003
  -0.01146885 -0.13198895  0.30965891       0.003
  -0.02624228  0.00874743  0.19924694       0.003
  -0.04101571  0.14948380  0.08883498       0.003
  -0.05578914  0.29022018 -0.02157699       0.003
   0.05676108  0.04898559 -0.00466529       0.003
   0.04198765  0.18972197 -0.11507726       0.003
  -0.10010944  0.20313469  0.15648175       0.003
   0.01244078 -0.03809990  0.17339344       0.003
  -0.00233265  0.10263647  0.06298147       0.003
  -0.01710608  0.24337285 -0.04743049       0.003
   0.09544415  0.00213826 -0.03051880       0.003
  -0.04665294  0.01555098  0.24104021       0.003
  -0.06142637  0.15628736  0.13062824       0.003
   0.05112385 -0.08494723  0.14753993       0.003
   0.03635042  0.05578914  0.03712797       0.003
   0.02157699  0.19652552 -0.07328400       0.003
  -0.12052010  0.20993824  0.19827501       0.003
  -0.00796988 -0.03129635  0.21518670       0.003
  -0.02274331  0.10944003  0.10477473       0.003
  -0.03751674  0.25017641 -0.00563723       0.003
   0.07503348  0.00894181  0.01127446       0.003
   0.06026005  0.14967819 -0.09913750       0.003
  -0.08183704  0.16309091  0.17242150       0.003
   0.03071319 -0.07814368  0.18933319       0.003
   0.01593976  0.06259270  0.07892123       0.003
   0.00116632  0.20332908 -0.03149074       0.003
   0.11371655 -0.03790552 -0.01457904       0.003
  -0.02838054 -0.02449280  0.25697996       0.003
  -0.04315397  0.11624358  0.14656800       0.003
  -0.05792740  0.25697996  0.03615603       0.003
   0.05462282  0.01574537  0.05306772       0.003
   0.03984939  0.15648175 -0.05734424       0.003
  -0.10224770  0.16989447  0.21421476       0.003
   0.01030252 -0.07134013  0.23112645       0.003
  -0.00447091  0.06939625  0.12071449       0.003
  -0.01924434  0.21013263  0.01030252       0.003
   0.09330589 -0.03110196  0.02721422       0.003
   0.07853245  0.10963442 -0.08319775       0.003
  -0.06356463  0.12304714  0.18836126       0.003
   0.04898559 -0.11818746  0.20527295       0.003
   0.03421216  0.02254892  0.09486098       0.003
   0.01943873  0.16328530 -0.01555098       0.003
   0.00466529  0.30402168 -0.12596295       0.003
  -0.01010814 -0.06453657  0.27291972       0.003
  -0.02488157  0.07619981  0.16250775       0.003
  -0.03965500  0.21693618  0.05209579       0.003
   0.07289522 -0.02429841  0.06900748       0.003
   0.05812179  0.11643797 -0.04140449       0.003
  -0.08397530  0.12985069  0.23015452       0.003
   0.02857493 -0.11138390  0.24706621       0.003
   0.01380150  0.02935248  0.13665425       0.003
  -0.00097194  0.17008885  0.02624228       0.003
   0.11157829 -0.07114574  0.04315397       0.003
   0.09680486  0.06959064 -0.06725799       0.003
  -0.04529223  0.08300336  0.20430101       0.003
  -0.06006566  0.22373974  0.09388905       0.003
   0.05248456 -0.01749485  0.11080074       0.003
   0.03771113  0.12324152  0.00038877       0.003
   0.02293770  0.26397790 -0.11002319       0.003
   0.00816427 -0.10458035  0.28885947       0.003
  -0.00660917  0.03615603  0.17844751       0.003
  -0.02138260  0.17689241  0.06803554       0.003
   0.09116763 -0.06434218  0.08494723       0.003
   0.07639419  0.07639419 -0.02546473       0.003
   0.06162076  0.21713057 -0.13587670       0.003
   0.04684733 -0.15142768  0.26300597       0.003
   0.03207390 -0.01069130  0.15259400       0.003
   0.01730047  0.13004508  0.04218204       0.003
   0.00252703  0.27078146 -0.06822993       0.003
   0.11507726  0.02954686 -0.05131824       0.003
  -0.02701983  0.04295958  0.22024077       0.003
  -0.04179326  0.18369596  0.10982880       0.003
   0.07075696 -0.05753863  0.12674049       0.003
   0.05598353  0.08319775  0.01632853       0.003
   0.04121010  0.22393413 -0.09408343       0.003
   0.02643667 -0.14462412  0.30479923       0.003
   0.01166324 -0.00388775  0.19438726       0.003
  -0.00311020  0.13684863  0.08397530       0.003
   0.10944003 -0.10438596  0.10088699       0.003
   0.09466660  0.03635042 -0.00952498       0.003
   0.07989316  0.17708680 -0.11993694       0.003
  -0.06220392  0.19049952  0.15162206       0.003
   0.05034630 -0.05073508  0.16853376       0.003
   0.03557287  0.09000130  0.05812179       0.003
   0.02079944  0.23073768 -0.05229017       0.003
   0.13334966 -0.01049691 -0.03537848       0.003
  -0.00874743  0.00291581  0.23618052       0.003
  -0.02352086  0.14365219  0.12576856       0.003
   0.08902937 -0.09758241  0.14268025       0.003
   0.07425593  0.04315397  0.03226829       0.003
   0.05948250  0.18389035 -0.07814368       0.003
  -0.08261459  0.19730307  0.19341533       0.003
   0.02993564 -0.04393152  0.21032702       0.003
   0.01516221  0.09680486  0.09991505       0.003
   0.00038877  0.23754123 -0.01049691       0.003
   0.11293900 -0.00369336  0.00641478       0.003
   0.09816557  0.13704302 -0.10399719       0.003
  -0.04393152  0.15045574  0.16756182       0.003
   0.06861870 -0.09077885  0.18447351       0.003
   0.05384527  0.04995753  0.07406155       0.003
   0.03907184  0.19069390 -0.03635042       0.003
   0.15162206 -0.05054069 -0.01943873       0.003
   0.00952498 -0.03712797  0.25212028       0.003
  -0.00524846  0.10360841  0.14170831       0.003
  -0.02002189  0.24434479  0.03129635       0.003
   0.09252834  0.00311020  0.04820804       0.003
   0.07775490  0.14384657 -0.06220392       0.003
   0.06298147  0.28458295 -0.17261589       0.003
   0.04820804 -0.08397530  0.22626677       0.003
   0.03343461  0.05676108  0.11585481       0.003
   0.01866118  0.19749746  0.00544284       0.003
   0.13121140 -0.04373713  0.02235454       0.003
   0.11643797  0.09699924 -0.08805743       0.003
  -0.02565912  0.11041196  0.18350158       0.003
   0.08689111 -0.13082263  0.20041327       0.003
   0.07211767  0.00991375  0.09000130       0.003
   0.05734424  0.15065013 -0.02041066       0.003
   0.04257081  0.29138651 -0.13082263       0.003
   0.02779738 -0.07717174  0.26806003       0.003
   0.01302395  0.06356463  0.15764807       0.003
  -0.00174949  0.20430101  0.04723610       0.003
   0.11080074 -0.03693358  0.06414780       0.003
   0.09602731  0.10380280 -0.04626417       0.003
   0.08125388  0.24453918 -0.15667613       0.003
   0.06648044 -0.12401907  0.24220653       0.003
   0.05170701  0.01671730  0.13179456       0.003
   0.03693358  0.15745368  0.02138260       0.003
   0.14948380 -0.08378091  0.03829429       0.003
   0.13471037  0.05695547 -0.07211767       0.003
 
 k-points in reciprocal lattice and weights: Server version 2017.05.18. K-point grid 
   0.00000000  0.00000000  0.00000000       0.002
   0.00152672  0.30687023  0.81374046       0.003
   0.00305344  0.61374046  0.62748092       0.003
   0.00458015  0.92061069  0.44122137       0.003
   0.00610687  0.22748092  0.25496183       0.003
   0.00763359  0.53435115  0.06870229       0.003
   0.00916031  0.84122137  0.88244275       0.003
   0.01068702  0.14809160  0.69618321       0.003
   0.01221374  0.45496183  0.50992366       0.003
   0.01374046  0.76183206  0.32366412       0.003
   0.01526718  0.06870229  0.13740458       0.003
   0.01679389  0.37557252  0.95114504       0.003
   0.01832061  0.68244275  0.76488550       0.003
   0.01984733  0.98931298  0.57862595       0.003
   0.02137405  0.29618321  0.39236641       0.003
   0.02290076  0.60305344  0.20610687       0.003
   0.02442748  0.90992366  0.01984733       0.003
   0.02595420  0.21679389  0.83358779       0.003
   0.02748092  0.52366412  0.64732824       0.003
   0.02900763  0.83053435  0.46106870       0.003
   0.03053435  0.13740458  0.27480916       0.003
   0.03206107  0.44427481  0.08854962       0.003
   0.03358779  0.75114504  0.90229008       0.003
   0.03511450  0.05801527  0.71603053       0.003
   0.03664122  0.36488550  0.52977099       0.003
   0.03816794  0.67175573  0.34351145       0.003
   0.03969466  0.97862595  0.15725191       0.003
   0.04122137  0.28549618  0.97099237       0.003
   0.04274809  0.59236641  0.78473282       0.003
   0.04427481  0.89923664  0.59847328       0.003
   0.04580153  0.20610687  0.41221374       0.003
   0.04732824  0.51297710  0.22595420       0.003
   0.04885496  0.81984733  0.03969466       0.003
   0.05038168  0.12671756  0.85343511       0.003
   0.05190840  0.43358779  0.66717557       0.003
   0.05343511  0.74045802  0.48091603       0.003
   0.05496183  0.04732824  0.29465649       0.003
   0.05648855  0.35419847  0.10839695       0.003
   0.05801527  0.66106870  0.92213740       0.003
   0.05954198  0.96793893  0.73587786       0.003
   0.06106870  0.27480916  0.54961832       0.003
   0.06259542  0.58167939  0.36335878       0.003
   0.06412214  0.88854962  0.17709924       0.003
   0.06564885  0.19541985  0.99083969       0.003
   0.06717557  0.50229008  0.80458015       0.003
   0.06870229  0.80916031  0.61832061       0.003
   0.07022901  0.11603053  0.43206107       0.003
   0.07175573  0.42290076  0.24580153       0.003
   0.07328244  0.72977099  0.05954198       0.003
   0.07480916  0.03664122  0.87328244       0.003
   0.07633588  0.34351145  0.68702290       0.003
   0.07786260  0.65038168  0.50076336       0.003
   0.07938931  0.95725191  0.31450382       0.003
   0.08091603  0.26412214  0.12824427       0.003
   0.08244275  0.57099237  0.94198473       0.003
   0.08396947  0.87786260  0.75572519       0.003
   0.08549618  0.18473282  0.56946565       0.003
   0.08702290  0.49160305  0.38320611       0.003
   0.08854962  0.79847328  0.19694656       0.003
   0.09007634  0.10534351  0.01068702       0.003
   0.09160305  0.41221374  0.82442748       0.003
   0.09312977  0.71908397  0.63816794       0.003
   0.09465649  0.02595420  0.45190840       0.003
   0.09618321  0.33282443  0.26564885       0.003
   0.09770992  0.63969466  0.07938931       0.003
   0.09923664  0.94656489  0.89312977       0.003
   0.10076336  0.25343511  0.70687023       0.003
   0.10229008  0.56030534  0.52061069       0.003
   0.10381679  0.86717557  0.33435115       0.003
   0.10534351  0.17404580  0.14809160       0.003
   0.10687023  0.48091603  0.96183206       0.003
   0.10839695  0.78778626  0.77557252       0.003
   0.10992366  0.09465649  0.58931298       0.003
   0.11145038  0.40152672  0.40305344       0.003
   0.11297710  0.70839695  0.21679389       0.003
   0.11450382  0.01526718  0.03053435       0.003
   0.11603053  0.32213740  0.84427481       0.003
   0.11755725  0.62900763  0.65801527       0.003
   0.11908397  0.93587786  0.47175573       0.003
   0.12061069  0.24274809  0.28549618       0.003
   0.12213740  0.54961832  0.09923664       0.003
   0.12366412  0.85648855  0.91297710       0.003
   0.12519084  0.16335878  0.72671756       0.003
   0.12671756  0.47022901  0.54045802       0.003
   0.12824427  0.77709924  0.35419847       0.003
   0.12977099  0.08396947  0.16793893       0.003
   0.13129771  0.39083969  0.98167939       0.003
   0.13282443  0.69770992  0.79541985       0.003
   0.13435115  0.00458015  0.60916031       0.003
   0.13587786  0.31145038  0.42290076       0.003
   0.13740458  0.61832061  0.23664122       0.003
   0.13893130  0.92519084  0.05038168       0.003
   0.14045802  0.23206107  0.86412214       0.003
   0.14198473  0.53893130  0.67786260       0.003
   0.14351145  0.84580153  0.49160305       0.003
   0.14503817  0.15267176  0.30534351       0.003
   0.14656489  0.45954198  0.11908397       0.003
   0.14809160  0.76641221  0.93282443       0.003
   0.14961832  0.07328244  0.74656489       0.003
   0.15114504  0.38015267  0.56030534       0.003
   0.15267176  0.68702290  0.37404580       0.003
   0.15419847  0.99389313  0.18778626       0.003
   0.15572519  0.30076336  0.00152672       0.003
   0.15725191  0.60763359  0.81526718       0.003
   0.15877863  0.91450382  0.62900763       0.003
   0.16030534  0.22137405  0.44274809       0.003
   0.16183206  0.52824427  0.25648855       0.003
   0.16335878  0.83511450  0.07022901       0.003
   0.16488550  0.14198473  0.88396947       0.003
   0.16641221  0.44885496  0.69770992       0.003
   0.16793893  0.75572519  0.51145038       0.003
   0.16946565  0.06259542  0.32519084       0.003
   0.17099237  0.36946565  0.13893130       0.003
   0.17251908  0.67633588  0.95267176       0.003
   0.17404580  0.98320611  0.76641221       0.003
   0.17557252  0.29007634  0.58015267       0.003
   0.17709924  0.59694656  0.39389313       0.003
   0.17862595  0.90381679  0.20763359       0.003
   0.18015267  0.21068702  0.02137405       0.003
   0.18167939  0.51755725  0.83511450       0.003
   0.18320611  0.82442748  0.64885496       0.003
   0.18473282  0.13129771  0.46259542       0.003
   0.18625954  0.43816794  0.27633588       0.003
   0.18778626  0.74503817  0.09007634       0.003
   0.18931298  0.05190840  0.90381679       0.003
   0.19083969  0.35877863  0.71755725       0.003
   0.19236641  0.66564885  0.53129771       0.003
   0.19389313  0.97251908  0.34503817       0.003
   0.19541985  0.27938931  0.15877863       0.003
   0.19694656  0.58625954  0.97251908       0.003
   0.19847328  0.89312977  0.78625954       0.003
   0.20000000  0.20000000  0.60000000       0.003
   0.20152672  0.50687023  0.41374046       0.003
   0.20305344  0.81374046  0.22748092       0.003
   0.20458015  0.12061069  0.04122137       0.003
   0.20610687  0.42748092  0.85496183       0.003
   0.20763359  0.73435114  0.66870229       0.003
   0.20916031  0.04122137  0.48244275       0.003
   0.21068702  0.34809160  0.29618321       0.003
   0.21221374  0.65496183  0.10992366       0.003
   0.21374046  0.96183206  0.92366412       0.003
   0.21526718  0.26870229  0.73740458       0.003
   0.21679389  0.57557252  0.55114504       0.003
   0.21832061  0.88244275  0.36488550       0.003
   0.21984733  0.18931298  0.17862595       0.003
   0.22137405  0.49618321  0.99236641       0.003
   0.22290076  0.80305343  0.80610687       0.003
   0.22442748  0.10992366  0.61984733       0.003
   0.22595420  0.41679389  0.43358779       0.003
   0.22748092  0.72366412  0.24732824       0.003
   0.22900763  0.03053435  0.06106870       0.003
   0.23053435  0.33740458  0.87480916       0.003
   0.23206107  0.64427481  0.68854962       0.003
   0.23358779  0.95114504  0.50229008       0.003
   0.23511450  0.25801527  0.31603053       0.003
   0.23664122  0.56488550  0.12977099       0.003
   0.23816794  0.87175573  0.94351145       0.003
   0.23969466  0.17862595  0.75725191       0.003
   0.24122137  0.48549618  0.57099237       0.003
   0.24274809  0.79236641  0.38473282       0.003
   0.24427481  0.09923664  0.19847328       0.003
   0.24580153  0.40610687  0.01221374       0.003
   0.24732824  0.71297710  0.82595420       0.003
   0.24885496  0.01984733  0.63969466       0.003
   0.25038168  0.32671756  0.45343511       0.003
   0.25190840  0.63358779  0.26717557       0.003
   0.25343511  0.94045802  0.08091603       0.003
   0.25496183  0.24732824  0.89465649       0.003
   0.25648855  0.55419847  0.70839695       0.003
   0.25801527  0.86106870  0.52213740       0.003
   0.25954198  0.16793893  0.33587786       0.003
   0.26106870  0.47480916  0.14961832       0.003
   0.26259542  0.78167939  0.96335878       0.003
   0.26412214  0.08854962  0.77709924       0.003
   0.26564885  0.39541985  0.59083969       0.003
   0.26717557  0.70229008  0.40458015       0.003
   0.26870229  0.00916031  0.21832061       0.003
   0.27022901  0.31603053  0.03206107       0.003
   0.27175573  0.62290076  0.84580153       0.003
   0.27328244  0.92977099  0.65954198       0.003
   0.27480916  0.23664122  0.47328244       0.003
   0.27633588  0.54351145  0.28702290       0.003
   0.27786260  0.85038168  0.10076336       0.003
   0.27938931  0.15725191  0.91450382       0.003
   0.28091603  0.46412214  0.72824427       0.003
   0.28244275  0.77099237  0.54198473       0.003
   0.28396947  0.07786260  0.35572519       0.003
   0.28549618  0.38473282  0.16946565       0.003
   0.28702290  0.69160305  0.98320611       0.003
   0.28854962  0.99847328  0.79694656       0.003
   0.29007634  0.30534351  0.61068702       0.003
   0.29160305  0.61221374  0.42442748       0.003
   0.29312977  0.91908397  0.23816794       0.003
   0.29465649  0.22595420  0.05190840       0.003
   0.29618321  0.53282443  0.86564885       0.003
   0.29770992  0.83969466  0.67938931       0.003
   0.29923664  0.14656489  0.49312977       0.003
   0.30076336  0.45343511  0.30687023       0.003
   0.30229008  0.76030534  0.12061069       0.003
   0.30381679  0.06717557  0.93435114       0.003
   0.30534351  0.37404580  0.74809160       0.003
   0.30687023  0.68091603  0.56183206       0.003
   0.30839695  0.98778626  0.37557252       0.003
   0.30992366  0.29465649  0.18931298       0.003
   0.31145038  0.60152672  0.00305344       0.003
   0.31297710  0.90839695  0.81679389       0.003
   0.31450382  0.21526718  0.63053435       0.003
   0.31603053  0.52213740  0.44427481       0.003
   0.31755725  0.82900763  0.25801527       0.003
   0.31908397  0.13587786  0.07175573       0.003
   0.32061069  0.44274809  0.88549618       0.003
   0.32213740  0.74961832  0.69923664       0.003
   0.32366412  0.05648855  0.51297710       0.003
   0.32519084  0.36335878  0.32671756       0.003
   0.32671756  0.67022901  0.14045802       0.003
   0.32824427  0.97709924  0.95419847       0.003
   0.32977099  0.28396947  0.76793893       0.003
   0.33129771  0.59083969  0.58167939       0.003
   0.33282443  0.89770992  0.39541985       0.003
   0.33435115  0.20458015  0.20916031       0.003
   0.33587786  0.51145038  0.02290076       0.003
   0.33740458  0.81832061  0.83664122       0.003
   0.33893130  0.12519084  0.65038168       0.003
   0.34045802  0.43206107  0.46412214       0.003
   0.34198473  0.73893130  0.27786260       0.003
   0.34351145  0.04580153  0.09160305       0.003
   0.34503817  0.35267176  0.90534351       0.003
   0.34656489  0.65954198  0.71908397       0.003
   0.34809160  0.96641221  0.53282443       0.003
   0.34961832  0.27328244  0.34656489       0.003
   0.35114504  0.58015267  0.16030534       0.003
   0.35267176  0.88702290  0.97404580       0.003
   0.35419847  0.19389313  0.78778626       0.003
   0.35572519  0.50076336  0.60152672       0.003
   0.35725191  0.80763359  0.41526718       0.003
   0.35877863  0.11450382  0.22900763       0.003
   0.36030534  0.42137405  0.04274809       0.003
   0.36183206  0.72824427  0.85648855       0.003
   0.36335878  0.03511450  0.67022901       0.003
   0.36488550  0.34198473  0.48396947       0.003
   0.36641221  0.64885496  0.29770992       0.003
   0.36793893  0.95572519  0.11145038       0.003
   0.36946565  0.26259542  0.92519084       0.003
   0.37099237  0.56946565  0.73893130       0.003
   0.37251908  0.87633588  0.55267176       0.003
   0.37404580  0.18320611  0.36641221       0.003
   0.37557252  0.49007634  0.18015267       0.003
   0.37709924  0.79694656  0.99389313       0.003
   0.37862595  0.10381679  0.80763359       0.003
   0.38015267  0.41068702  0.62137405       0.003
   0.38167939  0.71755725  0.43511450       0.003
   0.38320611  0.02442748  0.24885496       0.003
   0.38473282  0.33129771  0.06259542       0.003
   0.38625954  0.63816794  0.87633588       0.003
   0.38778626  0.94503817  0.69007634       0.003
   0.38931298  0.25190840  0.50381679       0.003
   0.39083969  0.55877863  0.31755725       0.003
   0.39236641  0.86564885  0.13129771       0.003
   0.39389313  0.17251908  0.94503817       0.003
   0.39541985  0.47938931  0.75877863       0.003
   0.39694656  0.78625954  0.57251908       0.003
   0.39847328  0.09312977  0.38625954       0.003
   0.40000000  0.40000000  0.20000000       0.003
   0.40152672  0.70687023  0.01374046       0.003
   0.40305344  0.01374046  0.82748092       0.003
   0.40458015  0.32061069  0.64122137       0.003
   0.40610687  0.62748092  0.45496183       0.003
   0.40763359  0.93435114  0.26870229       0.003
   0.40916031  0.24122137  0.08244275       0.003
   0.41068702  0.54809160  0.89618321       0.003
   0.41221374  0.85496183  0.70992366       0.003
   0.41374046  0.16183206  0.52366412       0.003
   0.41526718  0.46870229  0.33740458       0.003
   0.41679389  0.77557252  0.15114504       0.003
   0.41832061  0.08244275  0.96488550       0.003
   0.41984733  0.38931298  0.77862595       0.003
   0.42137405  0.69618321  0.59236641       0.003
   0.42290076  0.00305343  0.40610687       0.003
   0.42442748  0.30992366  0.21984733       0.003
   0.42595420  0.61679389  0.03358779       0.003
   0.42748092  0.92366412  0.84732824       0.003
   0.42900763  0.23053435  0.66106870       0.003
   0.43053435  0.53740458  0.47480916       0.003
   0.43206107  0.84427481  0.28854962       0.003
   0.43358779  0.15114504  0.10229008       0.003
   0.43511450  0.45801527  0.91603053       0.003
   0.43664122  0.76488550  0.72977099       0.003
   0.43816794  0.07175572  0.54351145       0.003
   0.43969466  0.37862595  0.35725191       0.003
   0.44122137  0.68549618  0.17099237       0.003
   0.44274809  0.99236641  0.98473282       0.003
   0.44427481  0.29923664  0.79847328       0.003
   0.44580153  0.60610687  0.61221374       0.003
   0.44732824  0.91297710  0.42595420       0.003
   0.44885496  0.21984733  0.23969466       0.003
   0.45038168  0.52671756  0.05343511       0.003
   0.45190840  0.83358779  0.86717557       0.003
   0.45343511  0.14045801  0.68091603       0.003
   0.45496183  0.44732824  0.49465649       0.003
   0.45648855  0.75419847  0.30839695       0.003
   0.45801527  0.06106870  0.12213740       0.003
   0.45954198  0.36793893  0.93587786       0.003
   0.46106870  0.67480916  0.74961832       0.003
   0.46259542  0.98167939  0.56335878       0.003
   0.46412214  0.28854962  0.37709924       0.003
   0.46564885  0.59541985  0.19083969       0.003
   0.46717557  0.90229008  0.00458015       0.003
   0.46870229  0.20916030  0.81832061       0.003
   0.47022901  0.51603053  0.63206107       0.003
   0.47175573  0.82290076  0.44580153       0.003
   0.47328244  0.12977099  0.25954198       0.003
   0.47480916  0.43664122  0.07328244       0.003
   0.47633588  0.74351145  0.88702290       0.003
   0.47786260  0.05038168  0.70076336       0.003
   0.47938931  0.35725191  0.51450382       0.003
   0.48091603  0.66412214  0.32824427       0.003
   0.48244275  0.97099237  0.14198473       0.003
   0.48396947  0.27786260  0.95572519       0.003
   0.48549618  0.58473282  0.76946565       0.003
   0.48702290  0.89160305  0.58320611       0.003
   0.48854962  0.19847328  0.39694656       0.003
   0.49007634  0.50534351  0.21068702       0.003
   0.49160305  0.81221374  0.02442748       0.003
   0.49312977  0.11908397  0.83816794       0.003
   0.49465649  0.42595420  0.65190840       0.003
   0.49618321  0.73282443  0.46564885       0.003
   0.49770992  0.03969466  0.27938931       0.003
   0.49923664  0.34656489  0.09312977       0.003
 
 position of ions in fractional coordinates (direct lattice) 
   0.00207919  0.00000000  0.00000000
   0.50000000  0.50000000  0.50000000
 
 position of ions in cartesian coordinates  (Angst):
   0.00816497  0.00408248  0.00408248
   3.92700000  3.92700000  3.92700000
 


--------------------------------------------------------------------------------------------------------


 k-point  1 :   0.0000 0.0000 0.0000  plane waves:     779
 k-point  2 :   0.0015 0.3069 0.8137  plane waves:     773
 k-point  3 :   0.0031 0.6137 0.6275  plane waves:     773
 k-point  4 :   0.0046 0.9206 0.4412  plane waves:     774
 k-point  5 :   0.0061 0.2275 0.2550  plane waves:     765
 k-point  6 :   0.0076 0.5344 0.0687  plane waves:     772
 k-point  7 :   0.0092 0.8412 0.8824  plane waves:     759
 k-point  8 :   0.0107 0.1481 0.6962  plane waves:     771
 k-point  9 :   0.0122 0.4550 0.5099  plane waves:     771
 k-point 10 :   0.0137 0.7618 0.3237  plane waves:     777
 k-point 11 :   0.0153 0.0687 0.1374  plane waves:     760
 k-point 12 :   0.0168 0.3756 0.9511  plane waves:     772
 k-point 13 :   0.0183 0.6824 0.7649  plane waves:     767
 k-point 14 :   0.0198 0.9893 0.5786  plane waves:     775
 k-point 15 :   0.0214 0.2962 0.3924  plane waves:     769
 k-point 16 :   0.0229 0.6031 0.2061  plane waves:     775
 k-point 17 :   0.0244 0.9099 0.0198  plane waves:     761
 k-point 18 :   0.0260 0.2168 0.8336  plane waves:     772
 k-point 19 :   0.0275 0.5237 0.6473  plane waves:     768
 k-point 20 :   0.0290 0.8305 0.4611  plane waves:     775
 k-point 21 :   0.0305 0.1374 0.2748  plane waves:     759
 k-point 22 :   0.0321 0.4443 0.0885  plane waves:     775
 k-point 23 :   0.0336 0.7511 0.9023  plane waves:     762
 k-point 24 :   0.0351 0.0580 0.7160  plane waves:     766
 k-point 25 :   0.0366 0.3649 0.5298  plane waves:     769
 k-point 26 :   0.0382 0.6718 0.3435  plane waves:     772
 k-point 27 :   0.0397 0.9786 0.1573  plane waves:     760
 k-point 28 :   0.0412 0.2855 0.9710  plane waves:     768
 k-point 29 :   0.0427 0.5924 0.7847  plane waves:     775
 k-point 30 :   0.0443 0.8992 0.5985  plane waves:     774
 k-point 31 :   0.0458 0.2061 0.4122  plane waves:     772
 k-point 32 :   0.0473 0.5130 0.2260  plane waves:     777
 k-point 33 :   0.0489 0.8198 0.0397  plane waves:     759
 k-point 34 :   0.0504 0.1267 0.8534  plane waves:     761
 k-point 35 :   0.0519 0.4336 0.6672  plane waves:     769
 k-point 36 :   0.0534 0.7405 0.4809  plane waves:     768
 k-point 37 :   0.0550 0.0473 0.2947  plane waves:     764
 k-point 38 :   0.0565 0.3542 0.1084  plane waves:     770
 k-point 39 :   0.0580 0.6611 0.9221  plane waves:     769
 k-point 40 :   0.0595 0.9679 0.7359  plane waves:     769
 k-point 41 :   0.0611 0.2748 0.5496  plane waves:     774
 k-point 42 :   0.0626 0.5817 0.3634  plane waves:     772
 k-point 43 :   0.0641 0.8885 0.1771  plane waves:     763
 k-point 44 :   0.0656 0.1954 0.9908  plane waves:     757
 k-point 45 :   0.0672 0.5023 0.8046  plane waves:     775
 k-point 46 :   0.0687 0.8092 0.6183  plane waves:     777
 k-point 47 :   0.0702 0.1160 0.4321  plane waves:     774
 k-point 48 :   0.0718 0.4229 0.2458  plane waves:     770
 k-point 49 :   0.0733 0.7298 0.0595  plane waves:     767
 k-point 50 :   0.0748 0.0366 0.8733  plane waves:     758
 k-point 51 :   0.0763 0.3435 0.6870  plane waves:     779
 k-point 52 :   0.0779 0.6504 0.5008  plane waves:     771
 k-point 53 :   0.0794 0.9573 0.3145  plane waves:     767
 k-point 54 :   0.0809 0.2641 0.1282  plane waves:     759
 k-point 55 :   0.0824 0.5710 0.9420  plane waves:     776
 k-point 56 :   0.0840 0.8779 0.7557  plane waves:     768
 k-point 57 :   0.0855 0.1847 0.5695  plane waves:     774
 k-point 58 :   0.0870 0.4916 0.3832  plane waves:     776
 k-point 59 :   0.0885 0.7985 0.1969  plane waves:     766
 k-point 60 :   0.0901 0.1053 0.0107  plane waves:     758
 k-point 61 :   0.0916 0.4122 0.8244  plane waves:     778
 k-point 62 :   0.0931 0.7191 0.6382  plane waves:     770
 k-point 63 :   0.0947 0.0260 0.4519  plane waves:     773
 k-point 64 :   0.0962 0.3328 0.2656  plane waves:     761
 k-point 65 :   0.0977 0.6397 0.0794  plane waves:     770
 k-point 66 :   0.0992 0.9466 0.8931  plane waves:     756
 k-point 67 :   0.1008 0.2534 0.7069  plane waves:     776
 k-point 68 :   0.1023 0.5603 0.5206  plane waves:     773
 k-point 69 :   0.1038 0.8672 0.3344  plane waves:     773
 k-point 70 :   0.1053 0.1740 0.1481  plane waves:     759
 k-point 71 :   0.1069 0.4809 0.9618  plane waves:     776
 k-point 72 :   0.1084 0.7878 0.7756  plane waves:     768
 k-point 73 :   0.1099 0.0947 0.5893  plane waves:     773
 k-point 74 :   0.1115 0.4015 0.4031  plane waves:     768
 k-point 75 :   0.1130 0.7084 0.2168  plane waves:     771
 k-point 76 :   0.1145 0.0153 0.0305  plane waves:     761
 k-point 77 :   0.1160 0.3221 0.8443  plane waves:     777
 k-point 78 :   0.1176 0.6290 0.6580  plane waves:     770
 k-point 79 :   0.1191 0.9359 0.4718  plane waves:     777
 k-point 80 :   0.1206 0.2427 0.2855  plane waves:     756
 k-point 81 :   0.1221 0.5496 0.0992  plane waves:     771
 k-point 82 :   0.1237 0.8565 0.9130  plane waves:     761
 k-point 83 :   0.1252 0.1634 0.7267  plane waves:     769
 k-point 84 :   0.1267 0.4702 0.5405  plane waves:     767
 k-point 85 :   0.1282 0.7771 0.3542  plane waves:     774
 k-point 86 :   0.1298 0.0840 0.1679  plane waves:     760
 k-point 87 :   0.1313 0.3908 0.9817  plane waves:     774
 k-point 88 :   0.1328 0.6977 0.7954  plane waves:     766
 k-point 89 :   0.1344 0.0046 0.6092  plane waves:     772
 k-point 90 :   0.1359 0.3115 0.4229  plane waves:     767
 k-point 91 :   0.1374 0.6183 0.2366  plane waves:     774
 k-point 92 :   0.1389 0.9252 0.0504  plane waves:     759
 k-point 93 :   0.1405 0.2321 0.8641  plane waves:     765
 k-point 94 :   0.1420 0.5389 0.6779  plane waves:     772
 k-point 95 :   0.1435 0.8458 0.4916  plane waves:     778
 k-point 96 :   0.1450 0.1527 0.3053  plane waves:     758
 k-point 97 :   0.1466 0.4595 0.1191  plane waves:     773
 k-point 98 :   0.1481 0.7664 0.9328  plane waves:     771
 k-point 99 :   0.1496 0.0733 0.7466  plane waves:     771
 k-point ** :   0.1511 0.3802 0.5603  plane waves:     777
 k-point ** :   0.1527 0.6870 0.3740  plane waves:     774
 k-point ** :   0.1542 0.9939 0.1878  plane waves:     759
 k-point ** :   0.1557 0.3008 0.0015  plane waves:     766
 k-point ** :   0.1573 0.6076 0.8153  plane waves:     767
 k-point ** :   0.1588 0.9145 0.6290  plane waves:     776
 k-point ** :   0.1603 0.2214 0.4427  plane waves:     765
 k-point ** :   0.1618 0.5282 0.2565  plane waves:     771
 k-point ** :   0.1634 0.8351 0.0702  plane waves:     767
 k-point ** :   0.1649 0.1420 0.8840  plane waves:     766
 k-point ** :   0.1664 0.4489 0.6977  plane waves:     772
 k-point ** :   0.1679 0.7557 0.5115  plane waves:     771
 k-point ** :   0.1695 0.0626 0.3252  plane waves:     762
 k-point ** :   0.1710 0.3695 0.1389  plane waves:     761
 k-point ** :   0.1725 0.6763 0.9527  plane waves:     773
 k-point ** :   0.1740 0.9832 0.7664  plane waves:     772
 k-point ** :   0.1756 0.2901 0.5802  plane waves:     766
 k-point ** :   0.1771 0.5969 0.3939  plane waves:     775
 k-point ** :   0.1786 0.9038 0.2076  plane waves:     765
 k-point ** :   0.1802 0.2107 0.0214  plane waves:     754
 k-point ** :   0.1817 0.5176 0.8351  plane waves:     777
 k-point ** :   0.1832 0.8244 0.6489  plane waves:     774
 k-point ** :   0.1847 0.1313 0.4626  plane waves:     769
 k-point ** :   0.1863 0.4382 0.2763  plane waves:     763
 k-point ** :   0.1878 0.7450 0.0901  plane waves:     767
 k-point ** :   0.1893 0.0519 0.9038  plane waves:     761
 k-point ** :   0.1908 0.3588 0.7176  plane waves:     773
 k-point ** :   0.1924 0.6656 0.5313  plane waves:     770
 k-point ** :   0.1939 0.9725 0.3450  plane waves:     770
 k-point ** :   0.1954 0.2794 0.1588  plane waves:     756
 k-point ** :   0.1969 0.5863 0.9725  plane waves:     777
 k-point ** :   0.1985 0.8931 0.7863  plane waves:     769
 k-point ** :   0.2000 0.2000 0.6000  plane waves:     764
 k-point ** :   0.2015 0.5069 0.4137  plane waves:     770
 k-point ** :   0.2031 0.8137 0.2275  plane waves:     764
 k-point ** :   0.2046 0.1206 0.0412  plane waves:     760
 k-point ** :   0.2061 0.4275 0.8550  plane waves:     768
 k-point ** :   0.2076 0.7344 0.6687  plane waves:     768
 k-point ** :   0.2092 0.0412 0.4824  plane waves:     775
 k-point ** :   0.2107 0.3481 0.2962  plane waves:     757
 k-point ** :   0.2122 0.6550 0.1099  plane waves:     774
 k-point ** :   0.2137 0.9618 0.9237  plane waves:     768
 k-point ** :   0.2153 0.2687 0.7374  plane waves:     772
 k-point ** :   0.2168 0.5756 0.5511  plane waves:     768
 k-point ** :   0.2183 0.8824 0.3649  plane waves:     774
 k-point ** :   0.2198 0.1893 0.1786  plane waves:     756
 k-point ** :   0.2214 0.4962 0.9924  plane waves:     776
 k-point ** :   0.2229 0.8031 0.8061  plane waves:     765
 k-point ** :   0.2244 0.1099 0.6198  plane waves:     777
 k-point ** :   0.2260 0.4168 0.4336  plane waves:     763
 k-point ** :   0.2275 0.7237 0.2473  plane waves:     771
 k-point ** :   0.2290 0.0305 0.0611  plane waves:     760
 k-point ** :   0.2305 0.3374 0.8748  plane waves:     772
 k-point ** :   0.2321 0.6443 0.6885  plane waves:     772
 k-point ** :   0.2336 0.9511 0.5023  plane waves:     768
 k-point ** :   0.2351 0.2580 0.3160  plane waves:     755
 k-point ** :   0.2366 0.5649 0.1298  plane waves:     769
 k-point ** :   0.2382 0.8718 0.9435  plane waves:     768
 k-point ** :   0.2397 0.1786 0.7573  plane waves:     768
 k-point ** :   0.2412 0.4855 0.5710  plane waves:     774
 k-point ** :   0.2427 0.7924 0.3847  plane waves:     772
 k-point ** :   0.2443 0.0992 0.1985  plane waves:     753
 k-point ** :   0.2458 0.4061 0.0122  plane waves:     775
 k-point ** :   0.2473 0.7130 0.8260  plane waves:     773
 k-point ** :   0.2489 0.0198 0.6397  plane waves:     780
 k-point ** :   0.2504 0.3267 0.4534  plane waves:     763
 k-point ** :   0.2519 0.6336 0.2672  plane waves:     768
 k-point ** :   0.2534 0.9405 0.0809  plane waves:     765
 k-point ** :   0.2550 0.2473 0.8947  plane waves:     768
 k-point ** :   0.2565 0.5542 0.7084  plane waves:     770
 k-point ** :   0.2580 0.8611 0.5221  plane waves:     773
 k-point ** :   0.2595 0.1679 0.3359  plane waves:     755
 k-point ** :   0.2611 0.4748 0.1496  plane waves:     769
 k-point ** :   0.2626 0.7817 0.9634  plane waves:     772
 k-point ** :   0.2641 0.0885 0.7771  plane waves:     773
 k-point ** :   0.2656 0.3954 0.5908  plane waves:     772
 k-point ** :   0.2672 0.7023 0.4046  plane waves:     772
 k-point ** :   0.2687 0.0092 0.2183  plane waves:     763
 k-point ** :   0.2702 0.3160 0.0321  plane waves:     766
 k-point ** :   0.2718 0.6229 0.8458  plane waves:     776
 k-point ** :   0.2733 0.9298 0.6595  plane waves:     777
 k-point ** :   0.2748 0.2366 0.4733  plane waves:     760
 k-point ** :   0.2763 0.5435 0.2870  plane waves:     760
 k-point ** :   0.2779 0.8504 0.1008  plane waves:     774
 k-point ** :   0.2794 0.1573 0.9145  plane waves:     770
 k-point ** :   0.2809 0.4641 0.7282  plane waves:     774
 k-point ** :   0.2824 0.7710 0.5420  plane waves:     774
 k-point ** :   0.2840 0.0779 0.3557  plane waves:     765
 k-point ** :   0.2855 0.3847 0.1695  plane waves:     762
 k-point ** :   0.2870 0.6916 0.9832  plane waves:     775
 k-point ** :   0.2885 0.9985 0.7969  plane waves:     772
 k-point ** :   0.2901 0.3053 0.6107  plane waves:     768
 k-point ** :   0.2916 0.6122 0.4244  plane waves:     771
 k-point ** :   0.2931 0.9191 0.2382  plane waves:     771
 k-point ** :   0.2947 0.2260 0.0519  plane waves:     759
 k-point ** :   0.2962 0.5328 0.8656  plane waves:     770
 k-point ** :   0.2977 0.8397 0.6794  plane waves:     775
 k-point ** :   0.2992 0.1466 0.4931  plane waves:     772
 k-point ** :   0.3008 0.4534 0.3069  plane waves:     761
 k-point ** :   0.3023 0.7603 0.1206  plane waves:     774
 k-point ** :   0.3038 0.0672 0.9344  plane waves:     769
 k-point ** :   0.3053 0.3740 0.7481  plane waves:     771
 k-point ** :   0.3069 0.6809 0.5618  plane waves:     770
 k-point ** :   0.3084 0.9878 0.3756  plane waves:     766
 k-point ** :   0.3099 0.2947 0.1893  plane waves:     756
 k-point ** :   0.3115 0.6015 0.0031  plane waves:     774
 k-point ** :   0.3130 0.9084 0.8168  plane waves:     772
 k-point ** :   0.3145 0.2153 0.6305  plane waves:     772
 k-point ** :   0.3160 0.5221 0.4443  plane waves:     762
 k-point ** :   0.3176 0.8290 0.2580  plane waves:     766
 k-point ** :   0.3191 0.1359 0.0718  plane waves:     763
 k-point ** :   0.3206 0.4427 0.8855  plane waves:     774
 k-point ** :   0.3221 0.7496 0.6992  plane waves:     768
 k-point ** :   0.3237 0.0565 0.5130  plane waves:     771
 k-point ** :   0.3252 0.3634 0.3267  plane waves:     751
 k-point ** :   0.3267 0.6702 0.1405  plane waves:     775
 k-point ** :   0.3282 0.9771 0.9542  plane waves:     773
 k-point ** :   0.3298 0.2840 0.7679  plane waves:     770
 k-point ** :   0.3313 0.5908 0.5817  plane waves:     765
 k-point ** :   0.3328 0.8977 0.3954  plane waves:     767
 k-point ** :   0.3344 0.2046 0.2092  plane waves:     763
 k-point ** :   0.3359 0.5115 0.0229  plane waves:     771
 k-point ** :   0.3374 0.8183 0.8366  plane waves:     771
 k-point ** :   0.3389 0.1252 0.6504  plane waves:     777
 k-point ** :   0.3405 0.4321 0.4641  plane waves:     757
 k-point ** :   0.3420 0.7389 0.2779  plane waves:     771
 k-point ** :   0.3435 0.0458 0.0916  plane waves:     771
 k-point ** :   0.3450 0.3527 0.9053  plane waves:     769
 k-point ** :   0.3466 0.6595 0.7191  plane waves:     769
 k-point ** :   0.3481 0.9664 0.5328  plane waves:     767
 k-point ** :   0.3496 0.2733 0.3466  plane waves:     758
 k-point ** :   0.3511 0.5802 0.1603  plane waves:     777
 k-point ** :   0.3527 0.8870 0.9740  plane waves:     770
 k-point ** :   0.3542 0.1939 0.7878  plane waves:     773
 k-point ** :   0.3557 0.5008 0.6015  plane waves:     764
 k-point ** :   0.3573 0.8076 0.4153  plane waves:     773
 k-point ** :   0.3588 0.1145 0.2290  plane waves:     761
 k-point ** :   0.3603 0.4214 0.0427  plane waves:     769
 k-point ** :   0.3618 0.7282 0.8565  plane waves:     775
 k-point ** :   0.3634 0.0351 0.6702  plane waves:     770
 k-point ** :   0.3649 0.3420 0.4840  plane waves:     760
 k-point ** :   0.3664 0.6489 0.2977  plane waves:     768
 k-point ** :   0.3679 0.9557 0.1115  plane waves:     772
 k-point ** :   0.3695 0.2626 0.9252  plane waves:     771
 k-point ** :   0.3710 0.5695 0.7389  plane waves:     774
 k-point ** :   0.3725 0.8763 0.5527  plane waves:     768
 k-point ** :   0.3740 0.1832 0.3664  plane waves:     764
 k-point ** :   0.3756 0.4901 0.1802  plane waves:     769
 k-point ** :   0.3771 0.7969 0.9939  plane waves:     780
 k-point ** :   0.3786 0.1038 0.8076  plane waves:     777
 k-point ** :   0.3802 0.4107 0.6214  plane waves:     769
 k-point ** :   0.3817 0.7176 0.4351  plane waves:     768
 k-point ** :   0.3832 0.0244 0.2489  plane waves:     771
 k-point ** :   0.3847 0.3313 0.0626  plane waves:     771
 k-point ** :   0.3863 0.6382 0.8763  plane waves:     775
 k-point ** :   0.3878 0.9450 0.6901  plane waves:     774
 k-point ** :   0.3893 0.2519 0.5038  plane waves:     766
 k-point ** :   0.3908 0.5588 0.3176  plane waves:     764
 k-point ** :   0.3924 0.8656 0.1313  plane waves:     773
 k-point ** :   0.3939 0.1725 0.9450  plane waves:     777
 k-point ** :   0.3954 0.4794 0.7588  plane waves:     770
 k-point ** :   0.3969 0.7863 0.5725  plane waves:     774
 k-point ** :   0.3985 0.0931 0.3863  plane waves:     767
 k-point ** :   0.4000 0.4000 0.2000  plane waves:     763
 k-point ** :   0.4015 0.7069 0.0137  plane waves:     774
 k-point ** :   0.4031 0.0137 0.8275  plane waves:     778
 k-point ** :   0.4046 0.3206 0.6412  plane waves:     771
 k-point ** :   0.4061 0.6275 0.4550  plane waves:     761
 k-point ** :   0.4076 0.9344 0.2687  plane waves:     773
 k-point ** :   0.4092 0.2412 0.0824  plane waves:     768
 k-point ** :   0.4107 0.5481 0.8962  plane waves:     768
 k-point ** :   0.4122 0.8550 0.7099  plane waves:     772
 k-point ** :   0.4137 0.1618 0.5237  plane waves:     775
 k-point ** :   0.4153 0.4687 0.3374  plane waves:     758
 k-point ** :   0.4168 0.7756 0.1511  plane waves:     775
 k-point ** :   0.4183 0.0824 0.9649  plane waves:     777
 k-point ** :   0.4198 0.3893 0.7786  plane waves:     770
 k-point ** :   0.4214 0.6962 0.5924  plane waves:     767
 k-point ** :   0.4229 0.0031 0.4061  plane waves:     770
 k-point ** :   0.4244 0.3099 0.2198  plane waves:     761
 k-point ** :   0.4260 0.6168 0.0336  plane waves:     771
 k-point ** :   0.4275 0.9237 0.8473  plane waves:     773
 k-point ** :   0.4290 0.2305 0.6611  plane waves:     773
 k-point ** :   0.4305 0.5374 0.4748  plane waves:     757
 k-point ** :   0.4321 0.8443 0.2885  plane waves:     772
 k-point ** :   0.4336 0.1511 0.1023  plane waves:     772
 k-point ** :   0.4351 0.4580 0.9160  plane waves:     772
 k-point ** :   0.4366 0.7649 0.7298  plane waves:     769
 k-point ** :   0.4382 0.0718 0.5435  plane waves:     767
 k-point ** :   0.4397 0.3786 0.3573  plane waves:     752
 k-point ** :   0.4412 0.6855 0.1710  plane waves:     770
 k-point ** :   0.4427 0.9924 0.9847  plane waves:     772
 k-point ** :   0.4443 0.2992 0.7985  plane waves:     771
 k-point ** :   0.4458 0.6061 0.6122  plane waves:     759
 k-point ** :   0.4473 0.9130 0.4260  plane waves:     772
 k-point ** :   0.4489 0.2198 0.2397  plane waves:     762
 k-point ** :   0.4504 0.5267 0.0534  plane waves:     770
 k-point ** :   0.4519 0.8336 0.8672  plane waves:     774
 k-point ** :   0.4534 0.1405 0.6809  plane waves:     773
 k-point ** :   0.4550 0.4473 0.4947  plane waves:     756
 k-point ** :   0.4565 0.7542 0.3084  plane waves:     769
 k-point ** :   0.4580 0.0611 0.1221  plane waves:     775
 k-point ** :   0.4595 0.3679 0.9359  plane waves:     770
 k-point ** :   0.4611 0.6748 0.7496  plane waves:     767
 k-point ** :   0.4626 0.9817 0.5634  plane waves:     770
 k-point ** :   0.4641 0.2885 0.3771  plane waves:     763
 k-point ** :   0.4656 0.5954 0.1908  plane waves:     771
 k-point ** :   0.4672 0.9023 0.0046  plane waves:     776
 k-point ** :   0.4687 0.2092 0.8183  plane waves:     772
 k-point ** :   0.4702 0.5160 0.6321  plane waves:     759
 k-point ** :   0.4718 0.8229 0.4458  plane waves:     772
 k-point ** :   0.4733 0.1298 0.2595  plane waves:     771
 k-point ** :   0.4748 0.4366 0.0733  plane waves:     767
 k-point ** :   0.4763 0.7435 0.8870  plane waves:     775
 k-point ** :   0.4779 0.0504 0.7008  plane waves:     767
 k-point ** :   0.4794 0.3573 0.5145  plane waves:     760
 k-point ** :   0.4809 0.6641 0.3282  plane waves:     769
 k-point ** :   0.4824 0.9710 0.1420  plane waves:     778
 k-point ** :   0.4840 0.2779 0.9557  plane waves:     771
 k-point ** :   0.4855 0.5847 0.7695  plane waves:     771
 k-point ** :   0.4870 0.8916 0.5832  plane waves:     769
 k-point ** :   0.4885 0.1985 0.3969  plane waves:     769
 k-point ** :   0.4901 0.5053 0.2107  plane waves:     766
 k-point ** :   0.4916 0.8122 0.0244  plane waves:     774
 k-point ** :   0.4931 0.1191 0.8382  plane waves:     775
 k-point ** :   0.4947 0.4260 0.6519  plane waves:     760
 k-point ** :   0.4962 0.7328 0.4656  plane waves:     766
 k-point ** :   0.4977 0.0397 0.2794  plane waves:     774
 k-point ** :   0.4992 0.3466 0.0931  plane waves:     780

 maximum number of plane-waves:       780
 maximum index in each direction: 
   IXMAX=    8   IYMAX=    8   IZMAX=    8
   IXMIN=   -9   IYMIN=   -9   IZMIN=   -9

 NGX is ok and might be reduce to  36
 NGY is ok and might be reduce to  36
 NGZ is ok and might be reduce to  36

 total amount of memory used by VASP on root node   172677. kBytes
========================================================================

   base      :      30000. kBytes
   nonl-proj :      36865. kBytes
   grid      :      20134. kBytes
   one-center:         31. kBytes
   wavefun   :      85647. kBytes
 
 For storing wavefunctions   80.70 MBYTES are necessary
 For predicting wavefunctions    3.64 MBYTES are necessary
 Broyden mixing: mesh for mixing (old mesh)
   NGX = 17   NGY = 17   NGZ = 17
  (NGX  = 72   NGY  = 72   NGZ  = 72)
  gives a total of   4913 points

 initial charge density was supplied:
 charge density of overlapping atoms calculated
 number of electron      32.0000000 magnetization 
 keeping initial charge density in first step


--------------------------------------------------------------------------------------------------------


 Maximum index for augmentation-charges       478753 (set IRDMAX)


--------------------------------------------------------------------------------------------------------


 First call to EWALD:  gamma=   0.569
 Maximum number of real-space cells 3x 3x 3
 Maximum number of reciprocal cells 4x 4x 4

    FEWALD:  cpu time    0.00: real time    0.00


----------------------------------------- Iteration    1(   1)  ---------------------------------------


    POTLOK:  cpu time    0.36: real time    0.36
    SETDIJ:  cpu time    0.53: real time    0.53
     EDDAV:  cpu time  100.83: real time  100.84
       DOS:  cpu time    0.03: real time    0.03
    --------------------------------------------
      LOOP:  cpu time  101.74: real time  101.75

 eigenvalue-minimisations  : 13416
 total energy-change (2. order) : 0.3155733E+03  (-0.2030468E+04)
 number of electron      32.0000000 magnetization 
 augmentation part       32.0000000 magnetization 

 Free energy of the ion-electron system (eV)
  ---------------------------------------------------
  alpha Z        PSCENC =       269.36092590
  Ewald energy   TEWEN  =     -4303.83037830
  -1/2 Hartree   DENC   =     -1118.60494082
  -exchange  EXHF       =         0.00000000
  -V(xc)+E(xc)   XCENC  =       165.56317562
  PAW double counting   =      4515.98063795    -4458.33413245
  entropy T*S    EENTRO =        -0.00313324
  eigenvalues    EBANDS =         2.34953883
  atomic energy  EATOM  =      5243.09164613
  ---------------------------------------------------
  free energy    TOTEN  =       315.57333963 eV

  energy without entropy =      315.57647288  energy(sigma->0) =      315.57490626


--------------------------------------------------------------------------------------------------------




----------------------------------------- Iteration    1(   2)  ---------------------------------------


     EDDAV:  cpu time  101.54: real time  101.54
       DOS:  cpu time    0.03: real time    0.03
    --------------------------------------------
      LOOP:  cpu time  101.57: real time  101.58

 eigenvalue-minimisations  : 13564
 total energy-change (2. order) :-0.3185284E+03  (-0.3076328E+03)
 number of electron      32.0000000 magnetization 
 augmentation part       32.0000000 magnetization 

 Free energy of the ion-electron system (eV)
  ---------------------------------------------------
  alpha Z        PSCENC =       269.36092590
  Ewald energy   TEWEN  =     -4303.83037830
  -1/2 Hartree   DENC   =     -1118.60494082
  -exchange  EXHF       =         0.00000000
  -V(xc)+E(xc)   XCENC  =       165.56317562
  PAW double counting   =      4515.98063795    -4458.33413245
  entropy T*S    EENTRO =        -0.01810388
  eigenvalues    EBANDS =      -316.16384148
  atomic energy  EATOM  =      5243.09164613
  ---------------------------------------------------
  free energy    TOTEN  =        -2.95501131 eV

  energy without entropy =       -2.93690744  energy(sigma->0) =       -2.94595938


--------------------------------------------------------------------------------------------------------




----------------------------------------- Iteration    1(   3)  ---------------------------------------


     EDDAV:  cpu time  106.96: real time  106.97
       DOS:  cpu time    0.03: real time    0.03
    --------------------------------------------
      LOOP:  cpu time  106.99: real time  107.01

 eigenvalue-minimisations  : 14652
 total energy-change (2. order) :-0.7922889E+01  (-0.7821578E+01)
 number of electron      32.0000000 magnetization 
 augmentation part       32.0000000 magnetization 

 Free energy of the ion-electron system (eV)
  ---------------------------------------------------
  alpha Z        PSCENC =       269.36092590
  Ewald energy   TEWEN  =     -4303.83037830
  -1/2 Hartree   DENC   =     -1118.60494082
  -exchange  EXHF       =         0.00000000
  -V(xc)+E(xc)   XCENC  =       165.56317562
  PAW double counting   =      4515.98063795    -4458.33413245
  entropy T*S    EENTRO =        -0.02460050
  eigenvalues    EBANDS =      -324.08023382
  atomic energy  EATOM  =      5243.09164613
  ---------------------------------------------------
  free energy    TOTEN  =       -10.87790027 eV

  energy without entropy =      -10.85329977  energy(sigma->0) =      -10.86560002


--------------------------------------------------------------------------------------------------------




----------------------------------------- Iteration    1(   4)  ---------------------------------------


     EDDAV:  cpu time  105.54: real time  105.54
       DOS:  cpu time    0.03: real time    0.03
    --------------------------------------------
      LOOP:  cpu time  105.57: real time  105.58

 eigenvalue-minimisations  : 14372
 total energy-change (2. order) :-0.7127430E-01  (-0.7124620E-01)
 number of electron      32.0000000 magnetization 
 augmentation part       32.0000000 magnetization 

 Free energy of the ion-electron system (eV)
  ---------------------------------------------------
  alpha Z        PSCENC =       269.36092590
  Ewald energy   TEWEN  =     -4303.83037830
  -1/2 Hartree   DENC   =     -1118.60494082
  -exchange  EXHF       =         0.00000000
  -V(xc)+E(xc)   XCENC  =       165.56317562
  PAW double counting   =      4515.98063795    -4458.33413245
  entropy T*S    EENTRO =        -0.02457887
  eigenvalues    EBANDS =      -324.15152974
  atomic energy  EATOM  =      5243.09164613
  ---------------------------------------------------
  free energy    TOTEN  =       -10.94917457 eV

  energy without entropy =      -10.92459569  energy(sigma->0) =      -10.93688513


--------------------------------------------------------------------------------------------------------




----------------------------------------- Iteration    1(   5)  ---------------------------------------


     EDDAV:  cpu time  107.70: real time  107.71
       DOS:  cpu time    0.03: real time    0.03
    CHARGE:  cpu time   13.93: real time   13.93
    MIXING:  cpu time    0.01: real time    0.01
    --------------------------------------------
      LOOP:  cpu time  121.67: real time  121.69

 eigenvalue-minimisations  : 14800
 total energy-change (2. order) :-0.1160102E-02  (-0.1160091E-02)
 number of electron      32.0000001 magnetization 
 augmentation part       14.9432151 magnetization 

 Broyden mixing:
  rms(total) = 0.68692E+00    rms(broyden)= 0.68689E+00
  rms(prec ) = 0.11494E+01
  weight for this iteration     100.00

 Free energy of the ion-electron system (eV)
  ---------------------------------------------------
  alpha Z        PSCENC =       269.36092590
  Ewald energy   TEWEN  =     -4303.83037830
  -1/2 Hartree   DENC   =     -1118.60494082
  -exchange  EXHF       =         0.00000000
  -V(xc)+E(xc)   XCENC  =       165.56317562
  PAW double counting   =      4515.98063795    -4458.33413245
  entropy T*S    EENTRO =        -0.02457877
  eigenvalues    EBANDS =      -324.15268995
  atomic energy  EATOM  =      5243.09164613
  ---------------------------------------------------
  free energy    TOTEN  =       -10.95033467 eV

  energy without entropy =      -10.92575590  energy(sigma->0) =      -10.93804528


--------------------------------------------------------------------------------------------------------




----------------------------------------- Iteration    1(   6)  ---------------------------------------


    POTLOK:  cpu time    0.35: real time    0.35
    SETDIJ:  cpu time    0.52: real time    0.52
     EDDAV:  cpu time  105.48: real time  105.49
       DOS:  cpu time    0.03: real time    0.03
    CHARGE:  cpu time   13.92: real time   13.92
    MIXING:  cpu time    0.01: real time    0.01
    --------------------------------------------
      LOOP:  cpu time  120.31: real time  120.33

 eigenvalue-minimisations  : 14340
 total energy-change (2. order) : 0.5138142E+00  (-0.1866316E+00)
 number of electron      32.0000001 magnetization 
 augmentation part       15.3492650 magnetization 

 Broyden mixing:
  rms(total) = 0.14206E+00    rms(broyden)= 0.14205E+00
  rms(prec ) = 0.17026E+00
  weight for this iteration     100.00

 eigenvalues of (default mixing * dielectric matrix)
  average eigenvalue GAMMA=   1.1165
  1.1165

 Free energy of the ion-electron system (eV)
  ---------------------------------------------------
  alpha Z        PSCENC =       269.36092590
  Ewald energy   TEWEN  =     -4303.83037830
  -1/2 Hartree   DENC   =     -1084.46246393
  -exchange  EXHF       =         0.00000000
  -V(xc)+E(xc)   XCENC  =       164.07417602
  PAW double counting   =      4621.72872195    -4567.84517786
  entropy T*S    EENTRO =        -0.02535715
  eigenvalues    EBANDS =      -352.52861319
  atomic energy  EATOM  =      5243.09164613
  ---------------------------------------------------
  free energy    TOTEN  =       -10.43652042 eV

  energy without entropy =      -10.41116327  energy(sigma->0) =      -10.42384185


--------------------------------------------------------------------------------------------------------




----------------------------------------- Iteration    1(   7)  ---------------------------------------


    POTLOK:  cpu time    0.35: real time    0.35
    SETDIJ:  cpu time    0.52: real time    0.52
     EDDAV:  cpu time  105.31: real time  105.32
       DOS:  cpu time    0.03: real time    0.03
    CHARGE:  cpu time   13.91: real time   13.91
    MIXING:  cpu time    0.01: real time    0.01
    --------------------------------------------
      LOOP:  cpu time  120.13: real time  120.14

 eigenvalue-minimisations  : 14300
 total energy-change (2. order) : 0.6310998E-02  (-0.1117145E-02)
 number of electron      32.0000001 magnetization 
 augmentation part       15.3409283 magnetization 

 Broyden mixing:
  rms(total) = 0.85919E-01    rms(broyden)= 0.85918E-01
  rms(prec ) = 0.10351E+00
  weight for this iteration     100.00

 eigenvalues of (default mixing * dielectric matrix)
  average eigenvalue GAMMA=   1.7491
  0.9792  2.5191

 Free energy of the ion-electron system (eV)
  ---------------------------------------------------
  alpha Z        PSCENC =       269.36092590
  Ewald energy   TEWEN  =     -4303.83037830
  -1/2 Hartree   DENC   =     -1083.99478031
  -exchange  EXHF       =         0.00000000
  -V(xc)+E(xc)   XCENC  =       164.05169900
  PAW double counting   =      4684.89437535    -4631.67582340
  entropy T*S    EENTRO =        -0.02528322
  eigenvalues    EBANDS =      -352.30259058
  atomic energy  EATOM  =      5243.09164613
  ---------------------------------------------------
  free energy    TOTEN  =       -10.43020942 eV

  energy without entropy =      -10.40492620  energy(sigma->0) =      -10.41756781


--------------------------------------------------------------------------------------------------------




----------------------------------------- Iteration    1(   8)  ---------------------------------------


    POTLOK:  cpu time    0.35: real time    0.35
    SETDIJ:  cpu time    0.52: real time    0.52
     EDDAV:  cpu time  106.51: real time  106.52
       DOS:  cpu time    0.03: real time    0.03
    CHARGE:  cpu time   13.91: real time   13.91
    MIXING:  cpu time    0.01: real time    0.01
    --------------------------------------------
      LOOP:  cpu time  121.33: real time  121.36

 eigenvalue-minimisations  : 14540
 total energy-change (2. order) : 0.2553861E-02  (-0.2889073E-03)
 number of electron      32.0000001 magnetization 
 augmentation part       15.3434774 magnetization 

 Broyden mixing:
  rms(total) = 0.19526E-02    rms(broyden)= 0.19483E-02
  rms(prec ) = 0.34020E-02
  weight for this iteration     100.00

 eigenvalues of (default mixing * dielectric matrix)
  average eigenvalue GAMMA=   1.5213
  2.5241  1.0688  0.9709

 Free energy of the ion-electron system (eV)
  ---------------------------------------------------
  alpha Z        PSCENC =       269.36092590
  Ewald energy   TEWEN  =     -4303.83037830
  -1/2 Hartree   DENC   =     -1082.30741961
[...]
      8       4.9806      2.00000
      9       5.2912      2.00000
     10       5.8981      2.00000
     11       6.5839      2.00000
     12       6.6240      2.00000
     13       7.1643      2.00000
     14       8.0117      2.00000
     15       8.1618      2.00000
     16       8.5453      2.00000
     17       9.0877      1.83690
     18      10.4318      0.00000
     19      22.3610      0.00000
     20      23.0404      0.00000

 k-point 320 :       0.4870    0.8916    0.5832
  band No.  band energies     occupation 
      1     -40.7146      2.00000
      2     -40.7138      2.00000
      3     -40.5471      2.00000
      4     -40.5275      2.00000
      5     -40.4654      2.00000
      6     -40.4616      2.00000
      7       4.3908      2.00000
      8       4.4791      2.00000
      9       4.6774      2.00000
     10       6.3762      2.00000
     11       6.7634      2.00000
     12       7.2600      2.00000
     13       7.8630      2.00000
     14       8.8491      2.00000
     15       9.0437      1.95621
     16       9.0693      1.90192
     17       9.8202      0.00000
     18      12.0274      0.00000
     19      19.1018      0.00000
     20      21.8242      0.00000

 k-point 321 :       0.4885    0.1985    0.3969
  band No.  band energies     occupation 
      1     -40.6750      2.00000
      2     -40.6246      2.00000
      3     -40.5287      2.00000
      4     -40.4908      2.00000
      5     -40.4671      2.00000
      6     -40.4446      2.00000
      7       4.4664      2.00000
      8       4.9228      2.00000
      9       5.2598      2.00000
     10       6.0380      2.00000
     11       6.6002      2.00000
     12       6.7168      2.00000
     13       7.0601      2.00000
     14       8.0478      2.00000
     15       8.2263      2.00000
     16       8.7062      2.00000
     17       8.9876      1.99504
     18      10.7021      0.00000
     19      21.9106      0.00000
     20      22.7879      0.00000

 k-point 322 :       0.4901    0.5053    0.2107
  band No.  band energies     occupation 
      1     -40.6820      2.00000
      2     -40.6693      2.00000
      3     -40.5196      2.00000
      4     -40.5051      2.00000
      5     -40.4759      2.00000
      6     -40.4374      2.00000
      7       4.4798      2.00000
      8       4.6069      2.00000
      9       4.8921      2.00000
     10       6.4686      2.00000
     11       6.7923      2.00000
     12       6.8563      2.00000
     13       7.6238      2.00000
     14       8.1635      2.00000
     15       8.1911      2.00000
     16       9.0670      1.90854
     17       9.5237      0.00000
     18      10.1416      0.00000
     19      21.0470      0.00000
     20      22.6750      0.00000

 k-point 323 :       0.4916    0.8122    0.0244
  band No.  band energies     occupation 
      1     -40.6868      2.00000
      2     -40.6849      2.00000
      3     -40.6143      2.00000
      4     -40.5705      2.00000
      5     -40.5139      2.00000
      6     -40.4895      2.00000
      7       5.2367      2.00000
      8       5.3756      2.00000
      9       5.5727      2.00000
     10       5.5874      2.00000
     11       6.0833      2.00000
     12       6.3220      2.00000
     13       7.8259      2.00000
     14       7.9812      2.00000
     15       8.5914      2.00000
     16       9.0955      1.80089
     17      12.3619      0.00000
     18      15.8334      0.00000
     19      16.8652      0.00000
     20      20.5337      0.00000

 k-point 324 :       0.4931    0.1191    0.8382
  band No.  band energies     occupation 
      1     -40.6760      2.00000
      2     -40.6646      2.00000
      3     -40.6390      2.00000
      4     -40.6195      2.00000
      5     -40.5058      2.00000
      6     -40.5000      2.00000
      7       5.2249      2.00000
      8       5.3735      2.00000
      9       5.7025      2.00000
     10       5.7268      2.00000
     11       6.1427      2.00000
     12       6.2439      2.00000
     13       7.8001      2.00000
     14       7.8638      2.00000
     15       8.8295      2.00000
     16       8.9062      1.99993
     17      14.3942      0.00000
     18      15.0647      0.00000
     19      18.4180      0.00000
     20      18.5977      0.00000

 k-point 325 :       0.4947    0.4260    0.6519
  band No.  band energies     occupation 
      1     -40.6257      2.00000
      2     -40.6122      2.00000
      3     -40.4933      2.00000
      4     -40.4897      2.00000
      5     -40.4633      2.00000
      6     -40.4360      2.00000
      7       4.7374      2.00000
      8       4.7632      2.00000
      9       5.4540      2.00000
     10       5.7127      2.00000
     11       6.5694      2.00000
     12       6.6521      2.00000
     13       7.4248      2.00000
     14       7.5839      2.00000
     15       7.6116      2.00000
     16       8.2802      2.00000
     17       9.2394      0.45283
     18       9.3634      0.01228
     19      23.7315      0.00000
     20      24.0195      0.00000

 k-point 326 :       0.4962    0.7328    0.4656
  band No.  band energies     occupation 
      1     -40.6577      2.00000
      2     -40.6424      2.00000
      3     -40.5064      2.00000
      4     -40.4927      2.00000
      5     -40.4857      2.00000
      6     -40.4381      2.00000
      7       4.6364      2.00000
      8       4.7190      2.00000
      9       5.0911      2.00000
     10       6.1784      2.00000
     11       6.6006      2.00000
     12       7.0298      2.00000
     13       7.1884      2.00000
     14       7.9179      2.00000
     15       7.9499      2.00000
     16       8.8722      1.99999
     17       9.5425      0.00000
     18       9.5866      0.00000
     19      22.1416      0.00000
     20      23.1759      0.00000

 k-point 327 :       0.4977    0.0397    0.2794
  band No.  band energies     occupation 
      1     -40.6962      2.00000
      2     -40.6884      2.00000
      3     -40.5915      2.00000
      4     -40.5220      2.00000
      5     -40.5173      2.00000
      6     -40.4697      2.00000
      7       4.8706      2.00000
      8       4.9319      2.00000
      9       5.2625      2.00000
     10       6.0074      2.00000
     11       6.3759      2.00000
     12       6.7297      2.00000
     13       7.3680      2.00000
     14       8.1913      2.00000
     15       8.7468      2.00000
     16       9.1610      1.27909
     17      10.7848      0.00000
     18      14.2137      0.00000
     19      18.9951      0.00000
     20      20.1803      0.00000

 k-point 328 :       0.4992    0.3466    0.0931
  band No.  band energies     occupation 
      1     -40.7035      2.00000
      2     -40.6896      2.00000
      3     -40.5636      2.00000
      4     -40.5188      2.00000
      5     -40.4776      2.00000
      6     -40.4646      2.00000
      7       4.5884      2.00000
      8       4.7960      2.00000
      9       4.9811      2.00000
     10       6.2823      2.00000
     11       6.5891      2.00000
     12       7.0269      2.00000
     13       7.0797      2.00000
     14       8.5196      2.00000
     15       8.9359      1.99960
     16       9.0067      1.98893
     17       9.8255      0.00000
     18      12.6965      0.00000
     19      20.2756      0.00000
     20      20.9961      0.00000


--------------------------------------------------------------------------------------------------------


 soft charge-density along one line, spin component           1
         0         1         2         3         4         5         6         7         8         9
x    16.6561    0.0000   -0.0002   -0.0321   -0.4203    0.0055    0.0001    0.0060   -0.0239    0.0006
x    -0.0000   -0.0000    0.0002   -0.0000   -0.0000   -0.0000   -0.0000    0.0000   -0.0000   -0.0000
x     0.0000   -0.0000   -0.0000    0.0000    0.0000   -0.0000    0.0000   -0.0000    0.0000    0.0000
x     0.0000   -0.0000   -0.0000    0.0000    0.0000    0.0000    0.0000    0.0000
y    16.6561    0.0000    0.0000   -0.0006   -0.4212   -0.0000    0.0000    0.0000   -0.0239    0.0000
y    -0.0000   -0.0000    0.0002    0.0000   -0.0000    0.0000   -0.0000   -0.0000    0.0000   -0.0000
y     0.0000    0.0000    0.0000    0.0000    0.0000   -0.0000    0.0000    0.0000    0.0000    0.0000
y     0.0000    0.0000    0.0000    0.0000   -0.0000   -0.0000    0.0000    0.0000
z    16.6561    0.0000    0.0000   -0.0006   -0.4194   -0.0000    0.0000    0.0000   -0.0238    0.0000
z    -0.0000   -0.0000    0.0002    0.0000   -0.0000    0.0000   -0.0000   -0.0000   -0.0000   -0.0000
z     0.0000   -0.0000   -0.0000    0.0000    0.0000    0.0000   -0.0000    0.0000    0.0000    0.0000
z    -0.0000   -0.0000   -0.0000    0.0000    0.0000    0.0000    0.0000    0.0000
 total charge-density along one line
x    32.0000    0.0000   -0.0007   -0.1050    3.5012   -0.0457   -0.0000   -0.0008   -0.0726    0.0019
x    -0.0000   -0.0005   -0.0047    0.0002   -0.0000   -0.0001   -0.0004    0.0000    0.0000    0.0000
x     0.0001   -0.0000    0.0000    0.0000    0.0001   -0.0000    0.0000    0.0000    0.0001   -0.0000
x     0.0000    0.0000    0.0000   -0.0000    0.0000    0.0000   -0.0000    0.0000   -0.0000   -0.0000
x    -0.0000    0.0000   -0.0000   -0.0000   -0.0000    0.0000   -0.0000   -0.0000   -0.0000    0.0000
x    -0.0000   -0.0000   -0.0000    0.0000    0.0000    0.0000    0.0000   -0.0000    0.0000    0.0000
x     0.0000   -0.0000    0.0000    0.0000    0.0000   -0.0000    0.0000    0.0000    0.0000   -0.0000
x    -0.0000    0.0000   -0.0000    0.0000
y    32.0000    0.0000    0.0000   -0.0005    3.5012    0.0000   -0.0000    0.0001   -0.0727    0.0000
y    -0.0000   -0.0000   -0.0047    0.0000   -0.0000    0.0000   -0.0004   -0.0000   -0.0000    0.0000
y     0.0001   -0.0000    0.0000    0.0000    0.0001   -0.0000    0.0000   -0.0000    0.0001   -0.0000
y     0.0000   -0.0000    0.0000   -0.0000    0.0000   -0.0000   -0.0000   -0.0000    0.0000    0.0000
y    -0.0000   -0.0000   -0.0000   -0.0000   -0.0000    0.0000   -0.0000    0.0000   -0.0000    0.0000
y    -0.0000    0.0000   -0.0000    0.0000   -0.0000    0.0000    0.0000    0.0000    0.0000   -0.0000
y     0.0000   -0.0000    0.0000   -0.0000    0.0000   -0.0000    0.0000    0.0000    0.0000    0.0000
y    -0.0000    0.0000   -0.0000    0.0000
z    32.0000    0.0000   -0.0000   -0.0005    3.5042    0.0000   -0.0000    0.0001   -0.0720    0.0000
z     0.0000   -0.0000   -0.0047    0.0000   -0.0000    0.0000   -0.0004   -0.0000   -0.0000    0.0000
z     0.0001   -0.0000    0.0000    0.0000    0.0001   -0.0000    0.0000   -0.0000    0.0001   -0.0000
z     0.0000   -0.0000    0.0000   -0.0000    0.0000   -0.0000   -0.0000   -0.0000    0.0000    0.0000
z    -0.0000   -0.0000   -0.0000   -0.0000   -0.0000    0.0000   -0.0000    0.0000   -0.0000    0.0000
z    -0.0000    0.0000   -0.0000    0.0000   -0.0000    0.0000    0.0000    0.0000    0.0000   -0.0000
z     0.0000   -0.0000    0.0000   -0.0000    0.0000   -0.0000    0.0000    0.0000    0.0000    0.0000
z    -0.0000    0.0000   -0.0000    0.0000
 
 pseudopotential strength for first ion, spin component:           1
-37.309   0.000  -0.001   8.286  -0.000   0.000  -0.000  -0.000
  0.000 -37.310   0.000  -0.000   8.286  -0.000   0.000  -0.000
 -0.001   0.000 -37.310   0.000  -0.000   8.286  -0.000   0.000
  8.286  -0.000   0.000   7.864   0.000  -0.000   0.000   0.000
 -0.000   8.286  -0.000   0.000   7.864   0.000  -0.000   0.000
  0.000  -0.000   8.286  -0.000   0.000   7.864   0.000  -0.000
 -0.000   0.000  -0.000   0.000  -0.000   0.000  -2.352   0.000
 -0.000  -0.000   0.000   0.000   0.000  -0.000   0.000  -2.353
  0.000  -0.000   0.000  -0.000   0.000  -0.000   0.001   0.000
  0.000  -0.000  -0.000  -0.000   0.000   0.000   0.000  -0.000
  0.000  -0.000  -0.000  -0.000   0.000   0.000  -0.000  -0.000
 -0.000   0.000  -0.000   0.000  -0.000   0.000  -2.008   0.000
 -0.000  -0.000   0.000   0.000   0.000  -0.000   0.000  -2.009
  0.000  -0.000   0.000  -0.000   0.000  -0.000   0.001   0.000
  0.000  -0.000  -0.000  -0.000   0.000   0.000   0.000  -0.000
  0.000  -0.000  -0.000  -0.000   0.000   0.000  -0.000  -0.000
  0.000   0.000   0.000   0.000   0.000   0.000   0.000  -0.000
  0.000   0.000   0.000   0.000   0.000   0.000   0.000  -0.000
 total augmentation occupancy for first ion, spin component:           1
  1.998   0.000   0.000  -0.014   0.000   0.000   0.000   0.000  -0.000  -0.000  -0.000  -0.000  -0.000   0.000   0.000   0.000
  0.000   1.998  -0.000   0.000  -0.014  -0.000  -0.000   0.000   0.000   0.000   0.000   0.000  -0.000  -0.000  -0.000  -0.000
  0.000  -0.000   1.998   0.000  -0.000  -0.014   0.000  -0.000  -0.000   0.000   0.000  -0.000   0.000   0.000  -0.000  -0.000
 -0.014   0.000   0.000   0.102   0.000  -0.000   0.002   0.001  -0.001  -0.000  -0.001  -0.001  -0.001   0.001   0.000   0.001
  0.000  -0.014  -0.000   0.000   0.103  -0.000  -0.000   0.001   0.001   0.002   0.000   0.000  -0.001  -0.001  -0.001  -0.000
  0.000  -0.000  -0.014  -0.000  -0.000   0.102   0.002  -0.000  -0.001   0.002   0.001  -0.001   0.000   0.001  -0.001  -0.001
  0.000  -0.000   0.000   0.002  -0.000   0.002   2.732   0.000   0.000   0.000   0.000  -0.718  -0.000   0.000   0.000   0.000
  0.000   0.000  -0.000   0.001   0.001  -0.000   0.000   2.731   0.000   0.000  -0.000  -0.000  -0.718  -0.000   0.000   0.000
 -0.000   0.000  -0.000  -0.001   0.001  -0.001   0.000   0.000   2.511   0.000   0.000   0.000  -0.000  -0.530  -0.000   0.000
 -0.000   0.000   0.000  -0.000   0.002   0.002   0.000   0.000   0.000   2.732   0.000   0.000   0.000  -0.000  -0.718   0.000
 -0.000   0.000   0.000  -0.001   0.000   0.001   0.000  -0.000   0.000   0.000   2.510   0.000   0.000   0.000   0.000  -0.531
 -0.000   0.000  -0.000  -0.001   0.000  -0.001  -0.718  -0.000   0.000   0.000   0.000   0.459  -0.000   0.001   0.000  -0.000
 -0.000  -0.000   0.000  -0.001  -0.001   0.000  -0.000  -0.718  -0.000   0.000   0.000  -0.000   0.456  -0.000  -0.000  -0.000
  0.000  -0.000   0.000   0.001  -0.001   0.001   0.000  -0.000  -0.530  -0.000   0.000   0.001  -0.000   0.418   0.000   0.001
  0.000  -0.000  -0.000   0.000  -0.001  -0.001   0.000   0.000  -0.000  -0.718   0.000   0.000  -0.000   0.000   0.457   0.000
  0.000  -0.000  -0.000   0.001  -0.000  -0.001   0.000   0.000   0.000   0.000  -0.531  -0.000  -0.000   0.001   0.000   0.417
 -0.000  -0.000  -0.000   0.002   0.002   0.002  -0.001   0.000  -0.000   0.001  -0.001  -0.001  -0.000  -0.000   0.001  -0.001
  0.000   0.000   0.000  -0.000  -0.000  -0.000   0.000  -0.000   0.000  -0.000   0.000  -0.000   0.000  -0.000   0.000  -0.000


------------------------ aborting loop because EDIFF is reached ----------------------------------------


    CHARGE:  cpu time   13.91: real time   13.92
    FORLOC:  cpu time    0.01: real time    0.01
    FORNL :  cpu time    5.32: real time    5.32
    STRESS:  cpu time   13.33: real time   13.33
    FORCOR:  cpu time    0.35: real time    0.35
    FORHAR:  cpu time    0.08: real time    0.08
    MIXING:  cpu time    0.01: real time    0.01

  FORCE on cell =-STRESS in cart. coord.  units (eV):
  Direction    XX          YY          ZZ          XY          YZ          ZX
  --------------------------------------------------------------------------------------
  Alpha Z   269.36093   269.36093   269.36093
  Ewald   -1434.61139 -1434.61099 -1434.61099    -0.04883    -0.06702    -0.04883
  Hartree   360.81916   360.89687   360.82038    -0.09055    -0.05103     0.00255
  E(xc)    -181.46186  -181.46050  -181.46121    -0.00039    -0.00026     0.00051
  Local     356.33019   356.11288   356.32741     0.20915     0.10715    -0.01687
  n-local   -56.14291   -56.07090   -56.09576    -0.02410    -0.02065     0.02394
  augment   243.17378   243.20292   243.14547    -0.02513     0.01772     0.01705
  Kinetic   442.94943   442.97690   442.91911    -0.04632     0.01633     0.01609
  Fock        0.00000     0.00000     0.00000     0.00000     0.00000     0.00000
  -------------------------------------------------------------------------------------
  Total       0.41733     0.40811     0.40535    -0.02617     0.00224    -0.00556
  in kB      22.08207    21.59406    21.44780    -1.38481     0.11834    -0.29402
  external pressure =       21.71 kB  Pullay stress =        0.00 kB


 VOLUME and BASIS-vectors are now :
 -----------------------------------------------------------------------------
  energy-cutoff  :      500.00
  volume of cell :       30.28
      direct lattice vectors                 reciprocal lattice vectors
     3.927000000  1.963500000  1.963500000     0.381970970 -0.127323657 -0.127323657
     1.963500000  3.927000000  1.963500000    -0.127323657  0.381970970 -0.127323657
     1.963500000  1.963500000  3.927000000    -0.127323657 -0.127323657  0.381970970

  length of vectors
     4.809573110  4.809573110  4.809573110     0.422284796  0.422284796  0.422284796


 FORCES acting on ions
    electron-ion (+dipol)            ewald-force                    non-local-force                 convergence-correction
 -----------------------------------------------------------------------------------------------
   0.773E+01 0.745E+01 0.745E+01   -.776E+01 -.747E+01 -.747E+01   -.319E-01 -.276E-01 -.272E-01   0.138E-04 0.107E-04 0.109E-04
   -.773E+01 -.745E+01 -.745E+01   0.776E+01 0.747E+01 0.747E+01   0.319E-01 0.276E-01 0.272E-01   -.122E-04 -.943E-05 -.971E-05
 -----------------------------------------------------------------------------------------------
   -.159E-05 -.166E-05 -.164E-05   0.195E-13 0.355E-14 -.355E-14   -.664E-05 -.101E-04 -.996E-05   0.160E-05 0.129E-05 0.122E-05
 
 
 POSITION                                       TOTAL-FORCE (eV/Angst)
 -----------------------------------------------------------------------------------
      0.00816      0.00408      0.00408        -0.059308     -0.050264     -0.049770
      3.92700      3.92700      3.92700         0.059308      0.050264      0.049770
 -----------------------------------------------------------------------------------
    total drift:                               -0.000007     -0.000010     -0.000010


--------------------------------------------------------------------------------------------------------



  FREE ENERGIE OF THE ION-ELECTRON SYSTEM (eV)
  ---------------------------------------------------
  free  energy   TOTEN  =       -10.42765791 eV

  energy  without entropy=      -10.40247519  energy(sigma->0) =      -10.41506655
 


--------------------------------------------------------------------------------------------------------


    POTLOK:  cpu time    0.88: real time    0.89


--------------------------------------------------------------------------------------------------------


     LOOP+:  cpu time 1757.95: real time 1758.32
    4ORBIT:  cpu time    0.00: real time    0.00

 total amount of memory used by VASP on root node   172677. kBytes
========================================================================

   base      :      30000. kBytes
   nonl-proj :      36865. kBytes
   grid      :      20134. kBytes
   one-center:         31. kBytes
   wavefun   :      85647. kBytes
 
  
  
 General timing and accounting informations for this job:
 ========================================================
  
                  Total CPU time used (sec):     1760.844
                            User time (sec):     1758.127
                          System time (sec):        2.718
                         Elapsed time (sec):     1761.590
  
                   Maximum memory used (kb):      347704.
                   Average memory used (kb):           0.
  
                          Minor page faults:      1796598
                          Major page faults:           13
                 Voluntary context switches:          285
