natom:    4
displacements:
- atom:    1
  direction:
    [   1.0000000000000000,  0.0000000000000000,  0.0000000000000000 ]
  displacement:
    [   0.0100000000000000,  0.0000000000000000,  0.0000000000000000 ]
lattice:
- [     3.927000000000000,     0.000000000000000,     0.000000000000000 ] # a
- [     0.000000000000000,     3.927000000000000,     0.000000000000000 ] # b
- [     0.000000000000000,     0.000000000000000,     3.927000000000000 ] # c
points:
- symbol: Pd # 1
  coordinates: [  0.000000000000000,  0.000000000000000,  0.000000000000000 ]
  mass: 106.420000
- symbol: Pd # 2
  coordinates: [  0.000000000000000,  0.500000000000000,  0.500000000000000 ]
  mass: 106.420000
- symbol: Pd # 3
  coordinates: [  0.500000000000000,  0.000000000000000,  0.500000000000000 ]
  mass: 106.420000
- symbol: Pd # 4
  coordinates: [  0.500000000000000,  0.500000000000000,  0.000000000000000 ]
  mass: 106.420000