phonopy:
  version: 1.11.6
  configuration:
    dim: "-1 1 1 1 -1 1 1 1 -1"
    create_displacements: ".true."

supercell_matrix:
- [  -1,   1,   1 ]
- [   1,  -1,   1 ]
- [   1,   1,  -1 ]

primitive_cell:
  lattice:
  - [     0.000000000000000,     1.963500000000000,     1.963500000000000 ] # a
  - [     1.963500000000000,     0.000000000000000,     1.963500000000000 ] # b
  - [     1.963500000000000,     1.963500000000000,     0.000000000000000 ] # c
  points:
  - symbol: Pd # 1
    coordinates: [  0.000000000000000,  0.000000000000000,  0.000000000000000 ]
    mass: 106.420000
  reciprocal_lattice: # without 2pi
  - [    -0.254647313470843,     0.254647313470843,     0.254647313470843 ] # a*
  - [     0.254647313470843,    -0.254647313470843,     0.254647313470843 ] # b*
  - [     0.254647313470843,     0.254647313470843,    -0.254647313470843 ] # c*

unit_cell:
  lattice:
  - [     0.000000000000000,     1.963500000000000,     1.963500000000000 ] # a
  - [     1.963500000000000,     0.000000000000000,     1.963500000000000 ] # b
  - [     1.963500000000000,     1.963500000000000,     0.000000000000000 ] # c
  points:
  - symbol: Pd # 1
    coordinates: [  0.000000000000000,  0.000000000000000,  0.000000000000000 ]
    mass: 106.420000
    reduced_to: 1

supercell:
  lattice:
  - [     3.927000000000000,     0.000000000000000,     0.000000000000000 ] # a
  - [     0.000000000000000,     3.927000000000000,     0.000000000000000 ] # b
  - [     0.000000000000000,     0.000000000000000,     3.927000000000000 ] # c
  points:
  - symbol: Pd # 1
    coordinates: [  0.000000000000000,  0.000000000000000,  0.000000000000000 ]
    mass: 106.420000
    reduced_to: 1
  - symbol: Pd # 2
    coordinates: [  0.000000000000000,  0.500000000000000,  0.500000000000000 ]
    mass: 106.420000
    reduced_to: 1
  - symbol: Pd # 3
    coordinates: [  0.500000000000000,  0.000000000000000,  0.500000000000000 ]
    mass: 106.420000
    reduced_to: 1
  - symbol: Pd # 4
    coordinates: [  0.500000000000000,  0.500000000000000,  0.000000000000000 ]
    mass: 106.420000
    reduced_to: 1
