<?xml version="1.0" encoding="ISO-8859-1"?>
<modeling>
 <generator>
  <i name="program" type="string">vasp </i>
  <i name="version" type="string">5.3.3  </i>
  <i name="subversion" type="string">18Dez12 (build Jun 21 2016 14:15:03) complex                          serial </i>
  <i name="platform" type="string">LinuxIFC </i>
  <i name="date" type="string">2017 10 10 </i>
  <i name="time" type="string">16:16:28 </i>
 </generator>
 <incar>
  <i type="string" name="PREC">a</i>
  <i type="int" name="IALGO">    38</i>
  <i type="logical" name="ADDGRID"> T  </i>
  <i type="int" name="IBRION">    -1</i>
  <i name="EDIFF">      0.00000001</i>
  <i type="int" name="ISYM">     0</i>
  <i name="ENCUT">    500.00000000</i>
  <i type="logical" name="LREAL"> F  </i>
  <i type="int" name="ISMEAR">     0</i>
  <i name="SIGMA">      0.10000000</i>
  <i type="logical" name="LWAVE"> F  </i>
 </incar>
 <kpoints>
  <varray name="kpointlist" >
   <v>       0.00000000       0.00000000       0.00000000 </v>
   <v>       0.00152672       0.30687023       0.81374046 </v>
   <v>       0.00305344       0.61374046       0.62748092 </v>
   <v>       0.00458015       0.92061069       0.44122137 </v>
   <v>       0.00610687       0.22748092       0.25496183 </v>
   <v>       0.00763359       0.53435115       0.06870229 </v>
   <v>       0.00916031       0.84122137       0.88244275 </v>
   <v>       0.01068702       0.14809160       0.69618321 </v>
   <v>       0.01221374       0.45496183       0.50992366 </v>
   <v>       0.01374046       0.76183206       0.32366412 </v>
   <v>       0.01526718       0.06870229       0.13740458 </v>
   <v>       0.01679389       0.37557252       0.95114504 </v>
   <v>       0.01832061       0.68244275       0.76488550 </v>
   <v>       0.01984733       0.98931298       0.57862595 </v>
   <v>       0.02137405       0.29618321       0.39236641 </v>
   <v>       0.02290076       0.60305344       0.20610687 </v>
   <v>       0.02442748       0.90992366       0.01984733 </v>
   <v>       0.02595420       0.21679389       0.83358779 </v>
   <v>       0.02748092       0.52366412       0.64732824 </v>
   <v>       0.02900763       0.83053435       0.46106870 </v>
   <v>       0.03053435       0.13740458       0.27480916 </v>
   <v>       0.03206107       0.44427481       0.08854962 </v>
   <v>       0.03358779       0.75114504       0.90229008 </v>
   <v>       0.03511450       0.05801527       0.71603053 </v>
   <v>       0.03664122       0.36488550       0.52977099 </v>
   <v>       0.03816794       0.67175573       0.34351145 </v>
   <v>       0.03969466       0.97862595       0.15725191 </v>
   <v>       0.04122137       0.28549618       0.97099237 </v>
   <v>       0.04274809       0.59236641       0.78473282 </v>
   <v>       0.04427481       0.89923664       0.59847328 </v>
   <v>       0.04580153       0.20610687       0.41221374 </v>
   <v>       0.04732824       0.51297710       0.22595420 </v>
   <v>       0.04885496       0.81984733       0.03969466 </v>
   <v>       0.05038168       0.12671756       0.85343511 </v>
   <v>       0.05190840       0.43358779       0.66717557 </v>
   <v>       0.05343511       0.74045802       0.48091603 </v>
   <v>       0.05496183       0.04732824       0.29465649 </v>
   <v>       0.05648855       0.35419847       0.10839695 </v>
   <v>       0.05801527       0.66106870       0.92213740 </v>
   <v>       0.05954198       0.96793893       0.73587786 </v>
   <v>       0.06106870       0.27480916       0.54961832 </v>
   <v>       0.06259542       0.58167939       0.36335878 </v>
   <v>       0.06412214       0.88854962       0.17709924 </v>
   <v>       0.06564885       0.19541985       0.99083969 </v>
   <v>       0.06717557       0.50229008       0.80458015 </v>
   <v>       0.06870229       0.80916031       0.61832061 </v>
   <v>       0.07022901       0.11603053       0.43206107 </v>
   <v>       0.07175573       0.42290076       0.24580153 </v>
   <v>       0.07328244       0.72977099       0.05954198 </v>
   <v>       0.07480916       0.03664122       0.87328244 </v>
   <v>       0.07633588       0.34351145       0.68702290 </v>
   <v>       0.07786260       0.65038168       0.50076336 </v>
   <v>       0.07938931       0.95725191       0.31450382 </v>
   <v>       0.08091603       0.26412214       0.12824427 </v>
   <v>       0.08244275       0.57099237       0.94198473 </v>
   <v>       0.08396947       0.87786260       0.75572519 </v>
   <v>       0.08549618       0.18473282       0.56946565 </v>
   <v>       0.08702290       0.49160305       0.38320611 </v>
   <v>       0.08854962       0.79847328       0.19694656 </v>
   <v>       0.09007634       0.10534351       0.01068702 </v>
   <v>       0.09160305       0.41221374       0.82442748 </v>
   <v>       0.09312977       0.71908397       0.63816794 </v>
   <v>       0.09465649       0.02595420       0.45190840 </v>
   <v>       0.09618321       0.33282443       0.26564885 </v>
   <v>       0.09770992       0.63969466       0.07938931 </v>
   <v>       0.09923664       0.94656489       0.89312977 </v>
   <v>       0.10076336       0.25343511       0.70687023 </v>
   <v>       0.10229008       0.56030534       0.52061069 </v>
   <v>       0.10381679       0.86717557       0.33435115 </v>
   <v>       0.10534351       0.17404580       0.14809160 </v>
   <v>       0.10687023       0.48091603       0.96183206 </v>
   <v>       0.10839695       0.78778626       0.77557252 </v>
   <v>       0.10992366       0.09465649       0.58931298 </v>
   <v>       0.11145038       0.40152672       0.40305344 </v>
   <v>       0.11297710       0.70839695       0.21679389 </v>
   <v>       0.11450382       0.01526718       0.03053435 </v>
   <v>       0.11603053       0.32213740       0.84427481 </v>
   <v>       0.11755725       0.62900763       0.65801527 </v>
   <v>       0.11908397       0.93587786       0.47175573 </v>
   <v>       0.12061069       0.24274809       0.28549618 </v>
   <v>       0.12213740       0.54961832       0.09923664 </v>
   <v>       0.12366412       0.85648855       0.91297710 </v>
   <v>       0.12519084       0.16335878       0.72671756 </v>
   <v>       0.12671756       0.47022901       0.54045802 </v>
   <v>       0.12824427       0.77709924       0.35419847 </v>
   <v>       0.12977099       0.08396947       0.16793893 </v>
   <v>       0.13129771       0.39083969       0.98167939 </v>
   <v>       0.13282443       0.69770992       0.79541985 </v>
   <v>       0.13435115       0.00458015       0.60916031 </v>
   <v>       0.13587786       0.31145038       0.42290076 </v>
   <v>       0.13740458       0.61832061       0.23664122 </v>
   <v>       0.13893130       0.92519084       0.05038168 </v>
   <v>       0.14045802       0.23206107       0.86412214 </v>
   <v>       0.14198473       0.53893130       0.67786260 </v>
   <v>       0.14351145       0.84580153       0.49160305 </v>
   <v>       0.14503817       0.15267176       0.30534351 </v>
   <v>       0.14656489       0.45954198       0.11908397 </v>
   <v>       0.14809160       0.76641221       0.93282443 </v>
   <v>       0.14961832       0.07328244       0.74656489 </v>
   <v>       0.15114504       0.38015267       0.56030534 </v>
   <v>       0.15267176       0.68702290       0.37404580 </v>
   <v>       0.15419847       0.99389313       0.18778626 </v>
   <v>       0.15572519       0.30076336       0.00152672 </v>
   <v>       0.15725191       0.60763359       0.81526718 </v>
   <v>       0.15877863       0.91450382       0.62900763 </v>
   <v>       0.16030534       0.22137405       0.44274809 </v>
   <v>       0.16183206       0.52824427       0.25648855 </v>
   <v>       0.16335878       0.83511450       0.07022901 </v>
   <v>       0.16488550       0.14198473       0.88396947 </v>
   <v>       0.16641221       0.44885496       0.69770992 </v>
   <v>       0.16793893       0.75572519       0.51145038 </v>
   <v>       0.16946565       0.06259542       0.32519084 </v>
   <v>       0.17099237       0.36946565       0.13893130 </v>
   <v>       0.17251908       0.67633588       0.95267176 </v>
   <v>       0.17404580       0.98320611       0.76641221 </v>
   <v>       0.17557252       0.29007634       0.58015267 </v>
   <v>       0.17709924       0.59694656       0.39389313 </v>
   <v>       0.17862595       0.90381679       0.20763359 </v>
   <v>       0.18015267       0.21068702       0.02137405 </v>
   <v>       0.18167939       0.51755725       0.83511450 </v>
   <v>       0.18320611       0.82442748       0.64885496 </v>
   <v>       0.18473282       0.13129771       0.46259542 </v>
   <v>       0.18625954       0.43816794       0.27633588 </v>
   <v>       0.18778626       0.74503817       0.09007634 </v>
   <v>       0.18931298       0.05190840       0.90381679 </v>
   <v>       0.19083969       0.35877863       0.71755725 </v>
   <v>       0.19236641       0.66564885       0.53129771 </v>
   <v>       0.19389313       0.97251908       0.34503817 </v>
   <v>       0.19541985       0.27938931       0.15877863 </v>
   <v>       0.19694656       0.58625954       0.97251908 </v>
   <v>       0.19847328       0.89312977       0.78625954 </v>
   <v>       0.20000000       0.20000000       0.60000000 </v>
   <v>       0.20152672       0.50687023       0.41374046 </v>
   <v>       0.20305344       0.81374046       0.22748092 </v>
   <v>       0.20458015       0.12061069       0.04122137 </v>
   <v>       0.20610687       0.42748092       0.85496183 </v>
   <v>       0.20763359       0.73435114       0.66870229 </v>
   <v>       0.20916031       0.04122137       0.48244275 </v>
   <v>       0.21068702       0.34809160       0.29618321 </v>
   <v>       0.21221374       0.65496183       0.10992366 </v>
   <v>       0.21374046       0.96183206       0.92366412 </v>
   <v>       0.21526718       0.26870229       0.73740458 </v>
   <v>       0.21679389       0.57557252       0.55114504 </v>
   <v>       0.21832061       0.88244275       0.36488550 </v>
   <v>       0.21984733       0.18931298       0.17862595 </v>
   <v>       0.22137405       0.49618321       0.99236641 </v>
   <v>       0.22290076       0.80305343       0.80610687 </v>
   <v>       0.22442748       0.10992366       0.61984733 </v>
   <v>       0.22595420       0.41679389       0.43358779 </v>
   <v>       0.22748092       0.72366412       0.24732824 </v>
   <v>       0.22900763       0.03053435       0.06106870 </v>
   <v>       0.23053435       0.33740458       0.87480916 </v>
   <v>       0.23206107       0.64427481       0.68854962 </v>
   <v>       0.23358779       0.95114504       0.50229008 </v>
   <v>       0.23511450       0.25801527       0.31603053 </v>
   <v>       0.23664122       0.56488550       0.12977099 </v>
   <v>       0.23816794       0.87175573       0.94351145 </v>
   <v>       0.23969466       0.17862595       0.75725191 </v>
   <v>       0.24122137       0.48549618       0.57099237 </v>
   <v>       0.24274809       0.79236641       0.38473282 </v>
   <v>       0.24427481       0.09923664       0.19847328 </v>
   <v>       0.24580153       0.40610687       0.01221374 </v>
   <v>       0.24732824       0.71297710       0.82595420 </v>
   <v>       0.24885496       0.01984733       0.63969466 </v>
   <v>       0.25038168       0.32671756       0.45343511 </v>
   <v>       0.25190840       0.63358779       0.26717557 </v>
   <v>       0.25343511       0.94045802       0.08091603 </v>
   <v>       0.25496183       0.24732824       0.89465649 </v>
   <v>       0.25648855       0.55419847       0.70839695 </v>
   <v>       0.25801527       0.86106870       0.52213740 </v>
   <v>       0.25954198       0.16793893       0.33587786 </v>
   <v>       0.26106870       0.47480916       0.14961832 </v>
   <v>       0.26259542       0.78167939       0.96335878 </v>
   <v>       0.26412214       0.08854962       0.77709924 </v>
   <v>       0.26564885       0.39541985       0.59083969 </v>
   <v>       0.26717557       0.70229008       0.40458015 </v>
   <v>       0.26870229       0.00916031       0.21832061 </v>
   <v>       0.27022901       0.31603053       0.03206107 </v>
   <v>       0.27175573       0.62290076       0.84580153 </v>
   <v>       0.27328244       0.92977099       0.65954198 </v>
   <v>       0.27480916       0.23664122       0.47328244 </v>
   <v>       0.27633588       0.54351145       0.28702290 </v>
   <v>       0.27786260       0.85038168       0.10076336 </v>
   <v>       0.27938931       0.15725191       0.91450382 </v>
   <v>       0.28091603       0.46412214       0.72824427 </v>
   <v>       0.28244275       0.77099237       0.54198473 </v>
   <v>       0.28396947       0.07786260       0.35572519 </v>
   <v>       0.28549618       0.38473282       0.16946565 </v>
   <v>       0.28702290       0.69160305       0.98320611 </v>
   <v>       0.28854962       0.99847328       0.79694656 </v>
   <v>       0.29007634       0.30534351       0.61068702 </v>
   <v>       0.29160305       0.61221374       0.42442748 </v>
   <v>       0.29312977       0.91908397       0.23816794 </v>
   <v>       0.29465649       0.22595420       0.05190840 </v>
   <v>       0.29618321       0.53282443       0.86564885 </v>
   <v>       0.29770992       0.83969466       0.67938931 </v>
   <v>       0.29923664       0.14656489       0.49312977 </v>
   <v>       0.30076336       0.45343511       0.30687023 </v>
   <v>       0.30229008       0.76030534       0.12061069 </v>
   <v>       0.30381679       0.06717557       0.93435114 </v>
   <v>       0.30534351       0.37404580       0.74809160 </v>
   <v>       0.30687023       0.68091603       0.56183206 </v>
   <v>       0.30839695       0.98778626       0.37557252 </v>
   <v>       0.30992366       0.29465649       0.18931298 </v>
   <v>       0.31145038       0.60152672       0.00305344 </v>
   <v>       0.31297710       0.90839695       0.81679389 </v>
   <v>       0.31450382       0.21526718       0.63053435 </v>
   <v>       0.31603053       0.52213740       0.44427481 </v>
   <v>       0.31755725       0.82900763       0.25801527 </v>
   <v>       0.31908397       0.13587786       0.07175573 </v>
   <v>       0.32061069       0.44274809       0.88549618 </v>
   <v>       0.32213740       0.74961832       0.69923664 </v>
   <v>       0.32366412       0.05648855       0.51297710 </v>
   <v>       0.32519084       0.36335878       0.32671756 </v>
   <v>       0.32671756       0.67022901       0.14045802 </v>
   <v>       0.32824427       0.97709924       0.95419847 </v>
   <v>       0.32977099       0.28396947       0.76793893 </v>
   <v>       0.33129771       0.59083969       0.58167939 </v>
   <v>       0.33282443       0.89770992       0.39541985 </v>
   <v>       0.33435115       0.20458015       0.20916031 </v>
   <v>       0.33587786       0.51145038       0.02290076 </v>
   <v>       0.33740458       0.81832061       0.83664122 </v>
   <v>       0.33893130       0.12519084       0.65038168 </v>
   <v>       0.34045802       0.43206107       0.46412214 </v>
   <v>       0.34198473       0.73893130       0.27786260 </v>
   <v>       0.34351145       0.04580153       0.09160305 </v>
   <v>       0.34503817       0.35267176       0.90534351 </v>
   <v>       0.34656489       0.65954198       0.71908397 </v>
   <v>       0.34809160       0.96641221       0.53282443 </v>
   <v>       0.34961832       0.27328244       0.34656489 </v>
   <v>       0.35114504       0.58015267       0.16030534 </v>
   <v>       0.35267176       0.88702290       0.97404580 </v>
   <v>       0.35419847       0.19389313       0.78778626 </v>
   <v>       0.35572519       0.50076336       0.60152672 </v>
   <v>       0.35725191       0.80763359       0.41526718 </v>
   <v>       0.35877863       0.11450382       0.22900763 </v>
   <v>       0.36030534       0.42137405       0.04274809 </v>
   <v>       0.36183206       0.72824427       0.85648855 </v>
   <v>       0.36335878       0.03511450       0.67022901 </v>
   <v>       0.36488550       0.34198473       0.48396947 </v>
   <v>       0.36641221       0.64885496       0.29770992 </v>
   <v>       0.36793893       0.95572519       0.11145038 </v>
   <v>       0.36946565       0.26259542       0.92519084 </v>
   <v>       0.37099237       0.56946565       0.73893130 </v>
   <v>       0.37251908       0.87633588       0.55267176 </v>
   <v>       0.37404580       0.18320611       0.36641221 </v>
   <v>       0.37557252       0.49007634       0.18015267 </v>
   <v>       0.37709924       0.79694656       0.99389313 </v>
   <v>       0.37862595       0.10381679       0.80763359 </v>
   <v>       0.38015267       0.41068702       0.62137405 </v>
   <v>       0.38167939       0.71755725       0.43511450 </v>
   <v>       0.38320611       0.02442748       0.24885496 </v>
   <v>       0.38473282       0.33129771       0.06259542 </v>
   <v>       0.38625954       0.63816794       0.87633588 </v>
   <v>       0.38778626       0.94503817       0.69007634 </v>
   <v>       0.38931298       0.25190840       0.50381679 </v>
   <v>       0.39083969       0.55877863       0.31755725 </v>
   <v>       0.39236641       0.86564885       0.13129771 </v>
   <v>       0.39389313       0.17251908       0.94503817 </v>
   <v>       0.39541985       0.47938931       0.75877863 </v>
   <v>       0.39694656       0.78625954       0.57251908 </v>
   <v>       0.39847328       0.09312977       0.38625954 </v>
   <v>       0.40000000       0.40000000       0.20000000 </v>
   <v>       0.40152672       0.70687023       0.01374046 </v>
   <v>       0.40305344       0.01374046       0.82748092 </v>
   <v>       0.40458015       0.32061069       0.64122137 </v>
   <v>       0.40610687       0.62748092       0.45496183 </v>
   <v>       0.40763359       0.93435114       0.26870229 </v>
   <v>       0.40916031       0.24122137       0.08244275 </v>
   <v>       0.41068702       0.54809160       0.89618321 </v>
   <v>       0.41221374       0.85496183       0.70992366 </v>
   <v>       0.41374046       0.16183206       0.52366412 </v>
   <v>       0.41526718       0.46870229       0.33740458 </v>
   <v>       0.41679389       0.77557252       0.15114504 </v>
   <v>       0.41832061       0.08244275       0.96488550 </v>
   <v>       0.41984733       0.38931298       0.77862595 </v>
   <v>       0.42137405       0.69618321       0.59236641 </v>
   <v>       0.42290076       0.00305343       0.40610687 </v>
   <v>       0.42442748       0.30992366       0.21984733 </v>
   <v>       0.42595420       0.61679389       0.03358779 </v>
   <v>       0.42748092       0.92366412       0.84732824 </v>
   <v>       0.42900763       0.23053435       0.66106870 </v>
   <v>       0.43053435       0.53740458       0.47480916 </v>
   <v>       0.43206107       0.84427481       0.28854962 </v>
   <v>       0.43358779       0.15114504       0.10229008 </v>
   <v>       0.43511450       0.45801527       0.91603053 </v>
   <v>       0.43664122       0.76488550       0.72977099 </v>
   <v>       0.43816794       0.07175572       0.54351145 </v>
   <v>       0.43969466       0.37862595       0.35725191 </v>
   <v>       0.44122137       0.68549618       0.17099237 </v>
   <v>       0.44274809       0.99236641       0.98473282 </v>
   <v>       0.44427481       0.29923664       0.79847328 </v>
   <v>       0.44580153       0.60610687       0.61221374 </v>
   <v>       0.44732824       0.91297710       0.42595420 </v>
   <v>       0.44885496       0.21984733       0.23969466 </v>
   <v>       0.45038168       0.52671756       0.05343511 </v>
   <v>       0.45190840       0.83358779       0.86717557 </v>
   <v>       0.45343511       0.14045801       0.68091603 </v>
   <v>       0.45496183       0.44732824       0.49465649 </v>
   <v>       0.45648855       0.75419847       0.30839695 </v>
   <v>       0.45801527       0.06106870       0.12213740 </v>
   <v>       0.45954198       0.36793893       0.93587786 </v>
   <v>       0.46106870       0.67480916       0.74961832 </v>
   <v>       0.46259542       0.98167939       0.56335878 </v>
   <v>       0.46412214       0.28854962       0.37709924 </v>
   <v>       0.46564885       0.59541985       0.19083969 </v>
   <v>       0.46717557       0.90229008       0.00458015 </v>
   <v>       0.46870229       0.20916030       0.81832061 </v>
   <v>       0.47022901       0.51603053       0.63206107 </v>
   <v>       0.47175573       0.82290076       0.44580153 </v>
   <v>       0.47328244       0.12977099       0.25954198 </v>
   <v>       0.47480916       0.43664122       0.07328244 </v>
   <v>       0.47633588       0.74351145       0.88702290 </v>
   <v>       0.47786260       0.05038168       0.70076336 </v>
   <v>       0.47938931       0.35725191       0.51450382 </v>
   <v>       0.48091603       0.66412214       0.32824427 </v>
   <v>       0.48244275       0.97099237       0.14198473 </v>
   <v>       0.48396947       0.27786260       0.95572519 </v>
   <v>       0.48549618       0.58473282       0.76946565 </v>
   <v>       0.48702290       0.89160305       0.58320611 </v>
   <v>       0.48854962       0.19847328       0.39694656 </v>
   <v>       0.49007634       0.50534351       0.21068702 </v>
   <v>       0.49160305       0.81221374       0.02442748 </v>
   <v>       0.49312977       0.11908397       0.83816794 </v>
   <v>       0.49465649       0.42595420       0.65190840 </v>
   <v>       0.49618321       0.73282443       0.46564885 </v>
   <v>       0.49770992       0.03969466       0.27938931 </v>
   <v>       0.49923664       0.34656489       0.09312977 </v>
  </varray>
  <varray name="weights" >
   <v>       0.00152672 </v>
   <v>       0.00305344 </v>
   <v>       0.00305344 </v>
   <v>       0.00305344 </v>
   <v>       0.00305344 </v>
   <v>       0.00305344 </v>
   <v>       0.00305344 </v>
   <v>       0.00305344 </v>
   <v>       0.00305344 </v>
   <v>       0.00305344 </v>
   <v>       0.00305344 </v>
   <v>       0.00305344 </v>
   <v>       0.00305344 </v>
   <v>       0.00305344 </v>
   <v>       0.00305344 </v>
   <v>       0.00305344 </v>
   <v>       0.00305344 </v>
   <v>       0.00305344 </v>
   <v>       0.00305344 </v>
   <v>       0.00305344 </v>
   <v>       0.00305344 </v>
   <v>       0.00305344 </v>
   <v>       0.00305344 </v>
   <v>       0.00305344 </v>
   <v>       0.00305344 </v>
   <v>       0.00305344 </v>
   <v>       0.00305344 </v>
   <v>       0.00305344 </v>
   <v>       0.00305344 </v>
   <v>       0.00305344 </v>
   <v>       0.00305344 </v>
   <v>       0.00305344 </v>
   <v>       0.00305344 </v>
   <v>       0.00305344 </v>
   <v>       0.00305344 </v>
   <v>       0.00305344 </v>
   <v>       0.00305344 </v>
   <v>       0.00305344 </v>
   <v>       0.00305344 </v>
   <v>       0.00305344 </v>
   <v>       0.00305344 </v>
   <v>       0.00305344 </v>
   <v>       0.00305344 </v>
   <v>       0.00305344 </v>
   <v>       0.00305344 </v>
   <v>       0.00305344 </v>
   <v>       0.00305344 </v>
   <v>       0.00305344 </v>
   <v>       0.00305344 </v>
   <v>       0.00305344 </v>
   <v>       0.00305344 </v>
   <v>       0.00305344 </v>
   <v>       0.00305344 </v>
   <v>       0.00305344 </v>
   <v>       0.00305344 </v>
   <v>       0.00305344 </v>
   <v>       0.00305344 </v>
   <v>       0.00305344 </v>
   <v>       0.00305344 </v>
   <v>       0.00305344 </v>
   <v>       0.00305344 </v>
   <v>       0.00305344 </v>
   <v>       0.00305344 </v>
   <v>       0.00305344 </v>
   <v>       0.00305344 </v>
   <v>       0.00305344 </v>
   <v>       0.00305344 </v>
   <v>       0.00305344 </v>
   <v>       0.00305344 </v>
   <v>       0.00305344 </v>
   <v>       0.00305344 </v>
   <v>       0.00305344 </v>
   <v>       0.00305344 </v>
   <v>       0.00305344 </v>
   <v>       0.00305344 </v>
   <v>       0.00305344 </v>
   <v>       0.00305344 </v>
   <v>       0.00305344 </v>
   <v>       0.00305344 </v>
   <v>       0.00305344 </v>
   <v>       0.00305344 </v>
   <v>       0.00305344 </v>
   <v>       0.00305344 </v>
   <v>       0.00305344 </v>
   <v>       0.00305344 </v>
   <v>       0.00305344 </v>
   <v>       0.00305344 </v>
   <v>       0.00305344 </v>
   <v>       0.00305344 </v>
   <v>       0.00305344 </v>
   <v>       0.00305344 </v>
   <v>       0.00305344 </v>
   <v>       0.00305344 </v>
   <v>       0.00305344 </v>
   <v>       0.00305344 </v>
   <v>       0.00305344 </v>
   <v>       0.00305344 </v>
   <v>       0.00305344 </v>
   <v>       0.00305344 </v>
   <v>       0.00305344 </v>
   <v>       0.00305344 </v>
   <v>       0.00305344 </v>
   <v>       0.00305344 </v>
   <v>       0.00305344 </v>
   <v>       0.00305344 </v>
   <v>       0.00305344 </v>
   <v>       0.00305344 </v>
   <v>       0.00305344 </v>
   <v>       0.00305344 </v>
   <v>       0.00305344 </v>
   <v>       0.00305344 </v>
   <v>       0.00305344 </v>
   <v>       0.00305344 </v>
   <v>       0.00305344 </v>
   <v>       0.00305344 </v>
   <v>       0.00305344 </v>
   <v>       0.00305344 </v>
   <v>       0.00305344 </v>
   <v>       0.00305344 </v>
   <v>       0.00305344 </v>
   <v>       0.00305344 </v>
   <v>       0.00305344 </v>
   <v>       0.00305344 </v>
   <v>       0.00305344 </v>
   <v>       0.00305344 </v>
   <v>       0.00305344 </v>
   <v>       0.00305344 </v>
   <v>       0.00305344 </v>
   <v>       0.00305344 </v>
   <v>       0.00305344 </v>
   <v>       0.00305344 </v>
   <v>       0.00305344 </v>
   <v>       0.00305344 </v>
   <v>       0.00305344 </v>
   <v>       0.00305344 </v>
   <v>       0.00305344 </v>
   <v>       0.00305344 </v>
   <v>       0.00305344 </v>
   <v>       0.00305344 </v>
   <v>       0.00305344 </v>
   <v>       0.00305344 </v>
   <v>       0.00305344 </v>
   <v>       0.00305344 </v>
   <v>       0.00305344 </v>
   <v>       0.00305344 </v>
   <v>       0.00305344 </v>
   <v>       0.00305344 </v>
   <v>       0.00305344 </v>
   <v>       0.00305344 </v>
   <v>       0.00305344 </v>
   <v>       0.00305344 </v>
   <v>       0.00305344 </v>
   <v>       0.00305344 </v>
   <v>       0.00305344 </v>
   <v>       0.00305344 </v>
   <v>       0.00305344 </v>
   <v>       0.00305344 </v>
   <v>       0.00305344 </v>
   <v>       0.00305344 </v>
   <v>       0.00305344 </v>
   <v>       0.00305344 </v>
   <v>       0.00305344 </v>
   <v>       0.00305344 </v>
   <v>       0.00305344 </v>
   <v>       0.00305344 </v>
   <v>       0.00305344 </v>
   <v>       0.00305344 </v>
   <v>       0.00305344 </v>
   <v>       0.00305344 </v>
   <v>       0.00305344 </v>
   <v>       0.00305344 </v>
   <v>       0.00305344 </v>
   <v>       0.00305344 </v>
   <v>       0.00305344 </v>
   <v>       0.00305344 </v>
   <v>       0.00305344 </v>
   <v>       0.00305344 </v>
   <v>       0.00305344 </v>
   <v>       0.00305344 </v>
   <v>       0.00305344 </v>
   <v>       0.00305344 </v>
   <v>       0.00305344 </v>
   <v>       0.00305344 </v>
   <v>       0.00305344 </v>
   <v>       0.00305344 </v>
   <v>       0.00305344 </v>
   <v>       0.00305344 </v>
   <v>       0.00305344 </v>
   <v>       0.00305344 </v>
   <v>       0.00305344 </v>
   <v>       0.00305344 </v>
   <v>       0.00305344 </v>
   <v>       0.00305344 </v>
   <v>       0.00305344 </v>
   <v>       0.00305344 </v>
   <v>       0.00305344 </v>
   <v>       0.00305344 </v>
   <v>       0.00305344 </v>
   <v>       0.00305344 </v>
   <v>       0.00305344 </v>
   <v>       0.00305344 </v>
   <v>       0.00305344 </v>
   <v>       0.00305344 </v>
   <v>       0.00305344 </v>
   <v>       0.00305344 </v>
   <v>       0.00305344 </v>
   <v>       0.00305344 </v>
   <v>       0.00305344 </v>
   <v>       0.00305344 </v>
   <v>       0.00305344 </v>
   <v>       0.00305344 </v>
   <v>       0.00305344 </v>
   <v>       0.00305344 </v>
   <v>       0.00305344 </v>
   <v>       0.00305344 </v>
   <v>       0.00305344 </v>
   <v>       0.00305344 </v>
   <v>       0.00305344 </v>
   <v>       0.00305344 </v>
   <v>       0.00305344 </v>
   <v>       0.00305344 </v>
   <v>       0.00305344 </v>
   <v>       0.00305344 </v>
   <v>       0.00305344 </v>
   <v>       0.00305344 </v>
   <v>       0.00305344 </v>
   <v>       0.00305344 </v>
   <v>       0.00305344 </v>
   <v>       0.00305344 </v>
   <v>       0.00305344 </v>
   <v>       0.00305344 </v>
   <v>       0.00305344 </v>
   <v>       0.00305344 </v>
   <v>       0.00305344 </v>
   <v>       0.00305344 </v>
   <v>       0.00305344 </v>
   <v>       0.00305344 </v>
   <v>       0.00305344 </v>
   <v>       0.00305344 </v>
   <v>       0.00305344 </v>
   <v>       0.00305344 </v>
   <v>       0.00305344 </v>
   <v>       0.00305344 </v>
   <v>       0.00305344 </v>
   <v>       0.00305344 </v>
   <v>       0.00305344 </v>
   <v>       0.00305344 </v>
   <v>       0.00305344 </v>
   <v>       0.00305344 </v>
   <v>       0.00305344 </v>
   <v>       0.00305344 </v>
   <v>       0.00305344 </v>
   <v>       0.00305344 </v>
   <v>       0.00305344 </v>
   <v>       0.00305344 </v>
   <v>       0.00305344 </v>
   <v>       0.00305344 </v>
   <v>       0.00305344 </v>
   <v>       0.00305344 </v>
   <v>       0.00305344 </v>
   <v>       0.00305344 </v>
   <v>       0.00305344 </v>
   <v>       0.00305344 </v>
   <v>       0.00305344 </v>
   <v>       0.00305344 </v>
   <v>       0.00305344 </v>
   <v>       0.00305344 </v>
   <v>       0.00305344 </v>
   <v>       0.00305344 </v>
   <v>       0.00305344 </v>
   <v>       0.00305344 </v>
   <v>       0.00305344 </v>
   <v>       0.00305344 </v>
   <v>       0.00305344 </v>
   <v>       0.00305344 </v>
   <v>       0.00305344 </v>
   <v>       0.00305344 </v>
   <v>       0.00305344 </v>
   <v>       0.00305344 </v>
   <v>       0.00305344 </v>
   <v>       0.00305344 </v>
   <v>       0.00305344 </v>
   <v>       0.00305344 </v>
   <v>       0.00305344 </v>
   <v>       0.00305344 </v>
   <v>       0.00305344 </v>
   <v>       0.00305344 </v>
   <v>       0.00305344 </v>
   <v>       0.00305344 </v>
   <v>       0.00305344 </v>
   <v>       0.00305344 </v>
   <v>       0.00305344 </v>
   <v>       0.00305344 </v>
   <v>       0.00305344 </v>
   <v>       0.00305344 </v>
   <v>       0.00305344 </v>
   <v>       0.00305344 </v>
   <v>       0.00305344 </v>
   <v>       0.00305344 </v>
   <v>       0.00305344 </v>
   <v>       0.00305344 </v>
   <v>       0.00305344 </v>
   <v>       0.00305344 </v>
   <v>       0.00305344 </v>
   <v>       0.00305344 </v>
   <v>       0.00305344 </v>
   <v>       0.00305344 </v>
   <v>       0.00305344 </v>
   <v>       0.00305344 </v>
   <v>       0.00305344 </v>
   <v>       0.00305344 </v>
   <v>       0.00305344 </v>
   <v>       0.00305344 </v>
   <v>       0.00305344 </v>
   <v>       0.00305344 </v>
   <v>       0.00305344 </v>
   <v>       0.00305344 </v>
   <v>       0.00305344 </v>
   <v>       0.00305344 </v>
   <v>       0.00305344 </v>
   <v>       0.00305344 </v>
   <v>       0.00305344 </v>
   <v>       0.00305344 </v>
   <v>       0.00305344 </v>
   <v>       0.00305344 </v>
   <v>       0.00305344 </v>
   <v>       0.00305344 </v>
   <v>       0.00305344 </v>
  </varray>
 </kpoints>
 <parameters>
  <separator name="general" >
   <i type="string" name="SYSTEM">unknown system</i>
   <i type="logical" name="LCOMPAT"> F  </i>
  </separator>
  <separator name="electronic" >
   <i type="string" name="PREC">a</i>
   <i name="ENMAX">    500.00000000</i>
   <i name="ENAUG">    473.06700000</i>
   <i name="EDIFF">      0.00000001</i>
   <i type="int" name="IALGO">    38</i>
   <i type="int" name="IWAVPR">     0</i>
   <i type="int" name="NBANDS">    20</i>
   <i name="NELECT">     32.00000000</i>
   <i type="int" name="TURBO">     0</i>
   <i type="int" name="IRESTART">     0</i>
   <i type="int" name="NREBOOT">     0</i>
   <i type="int" name="NMIN">     0</i>
   <i name="EREF">      0.00000000</i>
   <separator name="electronic smearing" >
    <i type="int" name="ISMEAR">     0</i>
    <i name="SIGMA">      0.10000000</i>
    <i name="KSPACING">      0.50000000</i>
    <i type="logical" name="KGAMMA"> T  </i>
   </separator>
   <separator name="electronic projectors" >
    <i type="logical" name="LREAL"> F  </i>
    <v name="ROPT">      0.00000000</v>
    <i type="int" name="LMAXPAW">  -100</i>
    <i type="int" name="LMAXMIX">     2</i>
    <i type="logical" name="NLSPLINE"> F  </i>
   </separator>
   <separator name="electronic startup" >
    <i type="int" name="ISTART">     0</i>
    <i type="int" name="ICHARG">     2</i>
    <i type="int" name="INIWAV">     1</i>
   </separator>
   <separator name="electronic spin" >
    <i type="int" name="ISPIN">     1</i>
    <i type="logical" name="LNONCOLLINEAR"> F  </i>
    <v name="MAGMOM">      1.00000000      1.00000000</v>
    <i name="NUPDOWN">     -1.00000000</i>
    <i type="logical" name="LSORBIT"> F  </i>
    <v name="SAXIS">      0.00000000      0.00000000      1.00000000</v>
    <i type="logical" name="LSPIRAL"> F  </i>
    <v name="QSPIRAL">      0.00000000      0.00000000      0.00000000</v>
    <i type="logical" name="LZEROZ"> F  </i>
   </separator>
   <separator name="electronic exchange-correlation" >
    <i type="logical" name="LASPH"> F  </i>
    <i type="logical" name="LMETAGGA"> F  </i>
   </separator>
   <separator name="electronic convergence" >
    <i type="int" name="NELM">    60</i>
    <i type="int" name="NELMDL">    -5</i>
    <i type="int" name="NELMIN">     2</i>
    <i name="ENINI">    500.00000000</i>
    <separator name="electronic convergence detail" >
     <i type="logical" name="LDIAG"> T  </i>
     <i type="logical" name="LSUBROT"> T  </i>
     <i name="WEIMIN">      0.00000000</i>
     <i name="EBREAK">      0.00000000</i>
     <i name="DEPER">      0.30000000</i>
     <i type="int" name="NRMM">     4</i>
     <i name="TIME">      0.40000000</i>
    </separator>
   </separator>
   <separator name="electronic mixer" >
    <i name="AMIX">      0.40000000</i>
    <i name="BMIX">      1.00000000</i>
    <i name="AMIN">      0.10000000</i>
    <i name="AMIX_MAG">      1.60000000</i>
    <i name="BMIX_MAG">      1.00000000</i>
    <separator name="electronic mixer details" >
     <i type="int" name="IMIX">     4</i>
     <i type="int" name="MAXMIX">   -45</i>
     <i name="WC">    100.00000000</i>
     <i type="int" name="INIMIX">     1</i>
     <i type="int" name="MIXPRE">     1</i>
     <i type="int" name="MREMOVE">     5</i>
    </separator>
   </separator>
   <separator name="electronic dipolcorrection" >
    <i type="logical" name="LDIPOL"> F  </i>
    <i type="logical" name="LMONO"> F  </i>
    <i type="int" name="IDIPOL">     0</i>
    <i name="EPSILON">      1.00000000</i>
    <v name="DIPOL">   -100.00000000   -100.00000000   -100.00000000</v>
    <i name="EFIELD">      0.00000000</i>
   </separator>
  </separator>
  <separator name="grids" >
   <i type="int" name="NGX">    36</i>
   <i type="int" name="NGY">    36</i>
   <i type="int" name="NGZ">    36</i>
   <i type="int" name="NGXF">    72</i>
   <i type="int" name="NGYF">    72</i>
   <i type="int" name="NGZF">    72</i>
   <i type="logical" name="ADDGRID"> T  </i>
  </separator>
  <separator name="ionic" >
   <i type="int" name="NSW">     0</i>
   <i type="int" name="IBRION">    -1</i>
   <i type="int" name="ISIF">     2</i>
   <i name="PSTRESS">      0.00000000</i>
   <i name="EDIFFG">      0.00000010</i>
   <i type="int" name="NFREE">     0</i>
   <i name="POTIM">      0.50000000</i>
   <i name="SMASS">     -3.00000000</i>
   <i name="SCALEE">      1.00000000</i>
  </separator>
  <separator name="ionic md" >
   <i name="TEBEG">      0.00010000</i>
   <i name="TEEND">      0.00010000</i>
   <i type="int" name="NBLOCK">     1</i>
   <i type="int" name="KBLOCK">     1</i>
   <i type="int" name="NPACO">   256</i>
   <i name="APACO">     16.00000000</i>
  </separator>
  <separator name="symmetry" >
   <i type="int" name="ISYM">     0</i>
   <i name="SYMPREC">      0.00001000</i>
  </separator>
  <separator name="dos" >
   <i type="logical" name="LORBIT"> F  </i>
   <v name="RWIGS">     -1.00000000</v>
   <i type="int" name="NEDOS">   301</i>
   <i name="EMIN">     10.00000000</i>
   <i name="EMAX">    -10.00000000</i>
   <i name="EFERMI">      0.00000000</i>
  </separator>
  <separator name="writing" >
   <i type="int" name="NWRITE">     2</i>
   <i type="logical" name="LWAVE"> F  </i>
   <i type="logical" name="LCHARG"> T  </i>
   <i type="logical" name="LPARD"> F  </i>
   <i type="logical" name="LVTOT"> F  </i>
   <i type="logical" name="LVHAR"> F  </i>
   <i type="logical" name="LELF"> F  </i>
   <i type="logical" name="LOPTICS"> F  </i>
   <v name="STM">      0.00000000      0.00000000      0.00000000      0.00000000      0.00000000      0.00000000      0.00000000</v>
  </separator>
  <separator name="performance" >
   <i type="int" name="NPAR">     1</i>
   <i type="int" name="NSIM">     4</i>
   <i type="int" name="NBLK">    -1</i>
   <i type="logical" name="LPLANE"> T  </i>
   <i type="logical" name="LSCALAPACK"> F  </i>
   <i type="logical" name="LSCAAWARE"> F  </i>
   <i type="logical" name="LSCALU"> F  </i>
   <i type="logical" name="LASYNC"> F  </i>
   <i type="logical" name="LORBITALREAL"> F  </i>
  </separator>
  <separator name="miscellaneous" >
   <i type="int" name="IDIOT">     3</i>
   <i type="logical" name="LMUSIC"> F  </i>
   <v name="POMASS">    106.42000000</v>
   <v name="DARWINR">      0.00000000</v>
   <v name="DARWINV">      1.00000000</v>
   <i type="logical" name="LCORR"> T  </i>
  </separator>
  <i type="logical" name="GGA_COMPAT"> T  </i>
  <i type="logical" name="LBERRY"> F  </i>
  <i type="int" name="ICORELEVEL">     0</i>
  <i type="logical" name="LDAU"> F  </i>
  <i type="int" name="I_CONSTRAINED_M">     0</i>
  <separator name="electronic exchange-correlation" >
   <i type="string" name="GGA">--</i>
   <i type="int" name="VOSKOWN">     0</i>
   <i type="logical" name="LHFCALC"> F  </i>
   <i type="string" name="PRECFOCK"></i>
   <i type="logical" name="LSYMGRAD"> F  </i>
   <i type="logical" name="LHFONE"> F  </i>
   <i type="logical" name="LRHFCALC"> F  </i>
   <i type="logical" name="LTHOMAS"> F  </i>
   <i type="logical" name="LMODELHF"> F  </i>
   <i name="ENCUT4O">     -1.00000000</i>
   <i type="int" name="EXXOEP">     0</i>
   <i type="int" name="FOURORBIT">     0</i>
   <i name="AEXX">      0.00000000</i>
   <i name="HFALPHA">      0.00000000</i>
   <i name="MCALPHA">      0.00000000</i>
   <i name="ALDAX">      1.00000000</i>
   <i name="AGGAX">      1.00000000</i>
   <i name="ALDAC">      1.00000000</i>
   <i name="AGGAC">      1.00000000</i>
   <i type="int" name="NKREDX">     1</i>
   <i type="int" name="NKREDY">     1</i>
   <i type="int" name="NKREDZ">     1</i>
   <i type="logical" name="SHIFTRED"> F  </i>
   <i type="logical" name="ODDONLY"> F  </i>
   <i type="logical" name="EVENONLY"> F  </i>
   <i type="int" name="LMAXFOCK">     0</i>
   <i type="int" name="NMAXFOCKAE">     0</i>
   <i type="logical" name="LFOCKAEDFT"> F  </i>
   <i name="HFSCREEN">      0.00000000</i>
   <i name="HFSCREENC">      0.00000000</i>
   <i type="int" name="NBANDSGWLOW">     0</i>
  </separator>
  <separator name="vdW DFT" >
   <i type="logical" name="LUSE_VDW"> F  </i>
   <i name="Zab_VDW">     -0.84910000</i>
   <i name="PARAM1">      0.12340000</i>
   <i name="PARAM2">      1.00000000</i>
   <i name="PARAM3">      0.00000000</i>
  </separator>
  <separator name="model GW" >
   <i type="int" name="MODEL_GW">     0</i>
   <i name="MODEL_EPS0">      9.08393385</i>
   <i name="MODEL_ALPHA">      1.00000000</i>
  </separator>
  <separator name="linear response parameters" >
   <i type="logical" name="LEPSILON"> F  </i>
   <i type="logical" name="LRPA"> F  </i>
   <i type="logical" name="LNABLA"> F  </i>
   <i type="logical" name="LVEL"> F  </i>
   <i type="int" name="KINTER">     0</i>
   <i name="CSHIFT">      0.10000000</i>
   <i name="OMEGAMAX">     -1.00000000</i>
   <i name="DEG_THRESHOLD">      0.00200000</i>
  </separator>
  <separator name="orbital magnetization" >
   <i type="logical" name="NUCIND"> F  </i>
   <v name="MAGPOS">      0.00000000      0.00000000      0.00000000</v>
   <i type="logical" name="LNICSALL"> T  </i>
   <i type="logical" name="ORBITALMAG"> F  </i>
   <i type="logical" name="LMAGBLOCH"> F  </i>
   <i type="logical" name="LCHIMAG"> F  </i>
   <i type="logical" name="LGAUGE"> T  </i>
   <i type="int" name="MAGATOM">     0</i>
   <v name="MAGDIPOL">      0.00000000      0.00000000      0.00000000</v>
   <v name="AVECCONST">      0.00000000      0.00000000      0.00000000</v>
  </separator>
  <separator name="response functions" >
   <i type="logical" name="LADDER"> F  </i>
   <i type="logical" name="LFXC"> F  </i>
   <i type="logical" name="LHARTREE"> T  </i>
   <i type="int" name="IBSE">     0</i>
   <i type="logical" name="LTCTE"> F  </i>
   <i type="logical" name="LTETE"> F  </i>
   <i type="logical" name="LTRIPLET"> F  </i>
   <i type="logical" name="LFXCEPS"> F  </i>
   <i type="logical" name="L2ORDER"> F  </i>
   <i type="logical" name="LUSEW"> F  </i>
   <i name="ENCUTGW">     -2.00000000</i>
   <i name="ENCUTGWSOFT">     -2.00000000</i>
   <i name="ENCUTLF">     -1.00000000</i>
   <i type="int" name="LMAXMP2">    -1</i>
   <i name="SCISSOR">      0.00000000</i>
   <i type="int" name="NOMEGA">     0</i>
   <i type="int" name="NOMEGAR">     0</i>
   <i type="int" name="NBANDSGW">    -1</i>
   <i type="int" name="NBANDSO">    -1</i>
   <i type="int" name="NBANDSV">    -1</i>
   <i type="int" name="NELM">     1</i>
   <i type="int" name="DIM">     3</i>
   <i type="int" name="ANTIRES">     0</i>
   <i name="OMEGAMAX">    -30.00000000</i>
   <i name="OMEGATL">   -200.00000000</i>
   <i type="int" name="OMEGAGRID">     0</i>
   <i name="CSHIFT">     -0.10000000</i>
   <i type="logical" name="SELFENERGY"> F  </i>
   <i type="logical" name="LSPECTRAL"> F  </i>
   <i type="logical" name="ODDONLYGW"> F  </i>
   <i type="logical" name="EVENONLYGW"> F  </i>
   <i type="int" name="NKREDLFX">     1</i>
   <i type="int" name="NKREDLFY">     1</i>
   <i type="int" name="NKREDLFZ">     1</i>
   <i type="int" name="MAXMEM">  1800</i>
   <i type="int" name="TELESCOPE">     0</i>
  </separator>
 </parameters>
 <atominfo>
  <atoms>       2 </atoms>
  <types>       1 </types>
  <array name="atoms" >
   <dimension dim="1">ion</dimension>
   <field type="string">element</field>
   <field type="int">atomtype</field>
   <set>
    <rc><c>Pd</c><c>   1</c></rc>
    <rc><c>Pd</c><c>   1</c></rc>
   </set>
  </array>
  <array name="atomtypes" >
   <dimension dim="1">type</dimension>
   <field type="int">atomspertype</field>
   <field type="string">element</field>
   <field>mass</field>
   <field>valence</field>
   <field type="string">pseudopotential</field>
   <set>
    <rc><c>   2</c><c>Pd</c><c>    106.42000000</c><c>     16.00000000</c><c>  PAW_PBE Pd_pv 28Jan2005               </c></rc>
   </set>
  </array>
 </atominfo>
 <structure name="initialpos" >
  <crystal>
   <varray name="basis" >
    <v>       3.92700000       1.96350000       1.96350000 </v>
    <v>       1.96350000       3.92700000       1.96350000 </v>
    <v>       1.96350000       1.96350000       3.92700000 </v>
   </varray>
   <i name="volume">     30.27977949 </i>
   <varray name="rec_basis" >
    <v>       0.38197097      -0.12732366      -0.12732366 </v>
    <v>      -0.12732366       0.38197097      -0.12732366 </v>
    <v>      -0.12732366      -0.12732366       0.38197097 </v>
   </varray>
  </crystal>
  <varray name="positions" >
   <v>       0.00207919       0.00000000       0.00000000 </v>
   <v>       0.50000000       0.50000000       0.50000000 </v>
  </varray>
 </structure>
 <calculation>
  <scstep>
   <time name="dav">  100.83  100.84</time>
   <time name="total">  101.74  101.75</time>
   <energy>
    <i name="alphaZ">    269.36092590 </i>
    <i name="ewald">  -4303.83037830 </i>
    <i name="hartreedc">  -1118.60494082 </i>
    <i name="XCdc">    165.56317562 </i>
    <i name="pawpsdc">   4515.98063795 </i>
    <i name="pawaedc">  -4458.33413245 </i>
    <i name="eentropy">     -0.00313324 </i>
    <i name="bandstr">      2.34953883 </i>
    <i name="atom">   5243.09164613 </i>
    <i name="e_fr_energy">    315.57333963 </i>
    <i name="e_wo_entrp">    315.57647288 </i>
    <i name="e_0_energy">    315.57490626 </i>
   </energy>
  </scstep>
  <scstep>
   <time name="dav">  101.54  101.54</time>
   <time name="total">  101.57  101.58</time>
   <energy>
    <i name="e_fr_energy">     -2.95501131 </i>
    <i name="e_wo_entrp">     -2.93690744 </i>
    <i name="e_0_energy">     -2.94595938 </i>
   </energy>
  </scstep>
  <scstep>
   <time name="dav">  106.96  106.97</time>
   <time name="total">  106.99  107.01</time>
   <energy>
    <i name="e_fr_energy">    -10.87790027 </i>
    <i name="e_wo_entrp">    -10.85329977 </i>
    <i name="e_0_energy">    -10.86560002 </i>
   </energy>
  </scstep>
  <scstep>
   <time name="dav">  105.54  105.54</time>
   <time name="total">  105.57  105.58</time>
   <energy>
    <i name="e_fr_energy">    -10.94917457 </i>
    <i name="e_wo_entrp">    -10.92459569 </i>
    <i name="e_0_energy">    -10.93688513 </i>
   </energy>
  </scstep>
  <scstep>
   <time name="dav">  107.70  107.71</time>
   <time name="total">  121.67  121.69</time>
   <energy>
    <i name="e_fr_energy">    -10.95033467 </i>
    <i name="e_wo_entrp">    -10.92575590 </i>
    <i name="e_0_energy">    -10.93804528 </i>
   </energy>
  </scstep>
  <scstep>
   <time name="dav">  105.48  105.49</time>
   <time name="total">  120.31  120.33</time>
   <energy>
    <i name="e_fr_energy">    -10.43652042 </i>
    <i name="e_wo_entrp">    -10.41116327 </i>
    <i name="e_0_energy">    -10.42384185 </i>
   </energy>
  </scstep>
  <scstep>
   <time name="dav">  105.31  105.32</time>
   <time name="total">  120.13  120.14</time>
   <energy>
    <i name="e_fr_energy">    -10.43020942 </i>
    <i name="e_wo_entrp">    -10.40492620 </i>
    <i name="e_0_energy">    -10.41756781 </i>
   </energy>
  </scstep>
  <scstep>
   <time name="dav">  106.51  106.52</time>
   <time name="total">  121.33  121.36</time>
   <energy>
    <i name="e_fr_energy">    -10.42765556 </i>
    <i name="e_wo_entrp">    -10.40246860 </i>
    <i name="e_0_energy">    -10.41506208 </i>
   </energy>
  </scstep>
  <scstep>
   <time name="dav">  106.63  106.64</time>
   <time name="total">  121.45  121.46</time>
   <energy>
    <i name="e_fr_energy">    -10.42766114 </i>
    <i name="e_wo_entrp">    -10.40247710 </i>
    <i name="e_0_energy">    -10.41506912 </i>
   </energy>
  </scstep>
  <scstep>
   <time name="dav">  107.35  107.36</time>
   <time name="total">  122.17  122.19</time>
   <energy>
    <i name="e_fr_energy">    -10.42765996 </i>
    <i name="e_wo_entrp">    -10.40247681 </i>
    <i name="e_0_energy">    -10.41506839 </i>
   </energy>
  </scstep>
  <scstep>
   <time name="dav">  107.06  107.07</time>
   <time name="total">  121.89  121.91</time>
   <energy>
    <i name="e_fr_energy">    -10.42765921 </i>
    <i name="e_wo_entrp">    -10.40247610 </i>
    <i name="e_0_energy">    -10.41506765 </i>
   </energy>
  </scstep>
  <scstep>
   <time name="dav">  107.07  107.08</time>
   <time name="total">  121.89  121.90</time>
   <energy>
    <i name="e_fr_energy">    -10.42765796 </i>
    <i name="e_wo_entrp">    -10.40247529 </i>
    <i name="e_0_energy">    -10.41506662 </i>
   </energy>
  </scstep>
  <scstep>
   <time name="dav">   81.26   81.27</time>
   <time name="total">   96.08   96.10</time>
   <energy>
    <i name="e_fr_energy">    -10.42765778 </i>
    <i name="e_wo_entrp">    -10.40247509 </i>
    <i name="e_0_energy">    -10.41506644 </i>
   </energy>
  </scstep>
  <scstep>
   <time name="dav">   70.94   70.94</time>
   <time name="total">   85.75   85.77</time>
   <energy>
    <i name="e_fr_energy">    -10.42765787 </i>
    <i name="e_wo_entrp">    -10.40247515 </i>
    <i name="e_0_energy">    -10.41506651 </i>
   </energy>
  </scstep>
  <scstep>
   <time name="dav">   69.57   69.57</time>
   <time name="total">   84.39   84.41</time>
   <energy>
    <i name="e_fr_energy">    -10.42765790 </i>
    <i name="e_wo_entrp">    -10.40247518 </i>
    <i name="e_0_energy">    -10.41506654 </i>
   </energy>
  </scstep>
  <scstep>
   <time name="dav">   69.21   69.22</time>
   <time name="total">   70.11   70.12</time>
   <energy>
    <i name="alphaZ">    269.36092590 </i>
    <i name="ewald">  -4303.83037830 </i>
    <i name="hartreedc">  -1082.53632016 </i>
    <i name="XCdc">    163.98674098 </i>
    <i name="pawpsdc">   4783.11820400 </i>
    <i name="pawaedc">  -4730.53941429 </i>
    <i name="eentropy">     -0.02518272 </i>
    <i name="bandstr">   -353.05387945 </i>
    <i name="atom">   5243.09164613 </i>
    <i name="e_fr_energy">    -10.42765791 </i>
    <i name="e_wo_entrp">    -10.40247519 </i>
    <i name="e_0_energy">    -10.41506655 </i>
   </energy>
  </scstep>
  <structure>
   <crystal>
    <varray name="basis" >
     <v>       3.92700000       1.96350000       1.96350000 </v>
     <v>       1.96350000       3.92700000       1.96350000 </v>
     <v>       1.96350000       1.96350000       3.92700000 </v>
    </varray>
    <i name="volume">     30.27977949 </i>
    <varray name="rec_basis" >
     <v>       0.38197097      -0.12732366      -0.12732366 </v>
     <v>      -0.12732366       0.38197097      -0.12732366 </v>
     <v>      -0.12732366      -0.12732366       0.38197097 </v>
    </varray>
   </crystal>
   <varray name="positions" >
    <v>       0.00207919       0.00000000       0.00000000 </v>
    <v>       0.50000000       0.50000000       0.50000000 </v>
   </varray>
  </structure>
  <varray name="forces" >
   <v>      -0.05930822      -0.05026395      -0.04976975 </v>
   <v>       0.05930822       0.05026395       0.04976975 </v>
  </varray>
  <varray name="stress" >
   <v>      22.08207137      -1.38471108      -0.29402318 </v>
   <v>      -1.38481030      21.59406207       0.11833374 </v>
   <v>      -0.29388482       0.11833597      21.44780374 </v>
  </varray>
  <energy>
   <i name="e_fr_energy">    -10.42765791 </i>
   <i name="e_wo_entrp">    -10.41506655 </i>
   <i name="e_0_energy">     -0.02518272 </i>
  </energy>
  <time name="totalsc"> 1757.95 1758.32</time>
  <eigenvalues>
   <array>
    <dimension dim="1">band</dimension>
    <dimension dim="2">kpoint</dimension>
    <dimension dim="3">spin</dimension>
    <field>eigene</field>
    <field>occ</field>
    <set>
     <set comment="spin 1">
      <set comment="kpoint 1">
       <r>  -40.7754    1.0000 </r>
       <r>  -40.4581    1.0000 </r>
       <r>  -40.4547    1.0000 </r>
       <r>  -40.4041    1.0000 </r>
       <r>  -40.4022    1.0000 </r>
       <r>  -40.4005    1.0000 </r>
       <r>    2.2383    1.0000 </r>
       <r>    4.0898    1.0000 </r>
       <r>    6.4233    1.0000 </r>
       <r>    6.4245    1.0000 </r>
       <r>    6.4657    1.0000 </r>
       <r>    6.4668    1.0000 </r>
       <r>    6.4683    1.0000 </r>
       <r>    8.0132    1.0000 </r>
       <r>    8.0146    1.0000 </r>
       <r>    9.1647    0.6200 </r>
       <r>    9.1664    0.6107 </r>
       <r>   10.2576    0.0000 </r>
       <r>   16.3002    0.0000 </r>
       <r>   25.7142    0.0000 </r>
      </set>
      <set comment="kpoint 2">
       <r>  -40.6758    1.0000 </r>
       <r>  -40.6680    1.0000 </r>
       <r>  -40.6318    1.0000 </r>
       <r>  -40.5520    1.0000 </r>
       <r>  -40.5391    1.0000 </r>
       <r>  -40.4593    1.0000 </r>
       <r>    5.0352    1.0000 </r>
       <r>    5.3190    1.0000 </r>
       <r>    5.5943    1.0000 </r>
       <r>    5.9629    1.0000 </r>
       <r>    6.1734    1.0000 </r>
       <r>    6.3218    1.0000 </r>
       <r>    7.4514    1.0000 </r>
       <r>    7.9786    1.0000 </r>
       <r>    8.1326    1.0000 </r>
       <r>    9.3855    0.0024 </r>
       <r>   11.3467    0.0000 </r>
       <r>   16.9080    0.0000 </r>
       <r>   17.9791    0.0000 </r>
       <r>   20.0372    0.0000 </r>
      </set>
      <set comment="kpoint 3">
       <r>  -40.7331    1.0000 </r>
       <r>  -40.7266    1.0000 </r>
       <r>  -40.5569    1.0000 </r>
       <r>  -40.5320    1.0000 </r>
       <r>  -40.4503    1.0000 </r>
       <r>  -40.4490    1.0000 </r>
       <r>    4.1674    1.0000 </r>
       <r>    4.2776    1.0000 </r>
       <r>    4.5576    1.0000 </r>
       <r>    6.5277    1.0000 </r>
       <r>    6.5335    1.0000 </r>
       <r>    8.4439    1.0000 </r>
       <r>    8.4627    1.0000 </r>
       <r>    8.7673    1.0000 </r>
       <r>    8.8317    1.0000 </r>
       <r>    8.9367    0.9998 </r>
       <r>    9.3430    0.0133 </r>
       <r>   12.9229    0.0000 </r>
       <r>   18.7379    0.0000 </r>
       <r>   20.4240    0.0000 </r>
      </set>
      <set comment="kpoint 4">
       <r>  -40.7104    1.0000 </r>
       <r>  -40.7067    1.0000 </r>
       <r>  -40.5776    1.0000 </r>
       <r>  -40.5458    1.0000 </r>
       <r>  -40.5090    1.0000 </r>
       <r>  -40.4903    1.0000 </r>
       <r>    4.8576    1.0000 </r>
       <r>    4.9155    1.0000 </r>
       <r>    5.3701    1.0000 </r>
       <r>    5.6947    1.0000 </r>
       <r>    6.5759    1.0000 </r>
       <r>    6.8145    1.0000 </r>
       <r>    7.6042    1.0000 </r>
       <r>    7.9862    1.0000 </r>
       <r>    9.0653    0.9564 </r>
       <r>    9.1591    0.6500 </r>
       <r>   12.3835    0.0000 </r>
       <r>   13.7740    0.0000 </r>
       <r>   18.2721    0.0000 </r>
       <r>   18.6459    0.0000 </r>
      </set>
      <set comment="kpoint 5">
       <r>  -40.7149    1.0000 </r>
       <r>  -40.5745    1.0000 </r>
       <r>  -40.5472    1.0000 </r>
       <r>  -40.4957    1.0000 </r>
       <r>  -40.4308    1.0000 </r>
       <r>  -40.4252    1.0000 </r>
       <r>    3.8166    1.0000 </r>
       <r>    4.7846    1.0000 </r>
       <r>    5.6216    1.0000 </r>
       <r>    6.3279    1.0000 </r>
       <r>    6.7639    1.0000 </r>
       <r>    6.7708    1.0000 </r>
       <r>    6.8340    1.0000 </r>
       <r>    7.5552    1.0000 </r>
       <r>    8.0241    1.0000 </r>
       <r>    8.1976    1.0000 </r>
       <r>    9.2284    0.2758 </r>
       <r>   12.6990    0.0000 </r>
       <r>   18.1323    0.0000 </r>
       <r>   24.0084    0.0000 </r>
      </set>
      <set comment="kpoint 6">
       <r>  -40.7132    1.0000 </r>
       <r>  -40.7060    1.0000 </r>
       <r>  -40.5616    1.0000 </r>
       <r>  -40.5529    1.0000 </r>
       <r>  -40.5072    1.0000 </r>
       <r>  -40.4965    1.0000 </r>
       <r>    4.7877    1.0000 </r>
       <r>    4.8591    1.0000 </r>
       <r>    5.3668    1.0000 </r>
       <r>    5.6495    1.0000 </r>
       <r>    6.7231    1.0000 </r>
       <r>    6.8996    1.0000 </r>
       <r>    7.5882    1.0000 </r>
       <r>    7.9093    1.0000 </r>
       <r>    9.1642    0.6225 </r>
       <r>    9.1896    0.4814 </r>
       <r>   12.9166    0.0000 </r>
       <r>   12.9775    0.0000 </r>
       <r>   17.9400    0.0000 </r>
       <r>   18.7899    0.0000 </r>
      </set>
      <set comment="kpoint 7">
       <r>  -40.7448    1.0000 </r>
       <r>  -40.5039    1.0000 </r>
       <r>  -40.4772    1.0000 </r>
       <r>  -40.4747    1.0000 </r>
       <r>  -40.4182    1.0000 </r>
       <r>  -40.4118    1.0000 </r>
       <r>    2.9935    1.0000 </r>
       <r>    4.5751    1.0000 </r>
       <r>    6.0586    1.0000 </r>
       <r>    6.2365    1.0000 </r>
       <r>    6.6892    1.0000 </r>
       <r>    6.7073    1.0000 </r>
       <r>    6.8994    1.0000 </r>
       <r>    7.3627    1.0000 </r>
       <r>    7.8472    1.0000 </r>
       <r>    8.0403    1.0000 </r>
       <r>    9.1569    0.6614 </r>
       <r>   12.1737    0.0000 </r>
       <r>   16.8214    0.0000 </r>
       <r>   25.6496    0.0000 </r>
      </set>
      <set comment="kpoint 8">
       <r>  -40.6760    1.0000 </r>
       <r>  -40.6729    1.0000 </r>
       <r>  -40.6305    1.0000 </r>
       <r>  -40.5277    1.0000 </r>
       <r>  -40.5226    1.0000 </r>
       <r>  -40.4552    1.0000 </r>
       <r>    4.9833    1.0000 </r>
       <r>    5.0440    1.0000 </r>
       <r>    5.4622    1.0000 </r>
       <r>    6.0719    1.0000 </r>
       <r>    6.2101    1.0000 </r>
       <r>    6.5658    1.0000 </r>
       <r>    7.3782    1.0000 </r>
       <r>    8.0227    1.0000 </r>
       <r>    8.2277    1.0000 </r>
       <r>    9.2631    0.1387 </r>
       <r>   10.6057    0.0000 </r>
       <r>   16.8998    0.0000 </r>
       <r>   17.2425    0.0000 </r>
       <r>   19.9780    0.0000 </r>
      </set>
      <set comment="kpoint 9">
       <r>  -40.7696    1.0000 </r>
       <r>  -40.7512    1.0000 </r>
       <r>  -40.5478    1.0000 </r>
       <r>  -40.5399    1.0000 </r>
       <r>  -40.4620    1.0000 </r>
       <r>  -40.4576    1.0000 </r>
       <r>    4.0733    1.0000 </r>
       <r>    4.1502    1.0000 </r>
       <r>    4.3432    1.0000 </r>
       <r>    6.3856    1.0000 </r>
       <r>    6.4780    1.0000 </r>
       <r>    8.7267    1.0000 </r>
       <r>    9.0626    0.9599 </r>
       <r>    9.1494    0.6992 </r>
       <r>    9.1827    0.5203 </r>
       <r>    9.4415    0.0002 </r>
       <r>   10.5923    0.0000 </r>
       <r>   12.8031    0.0000 </r>
       <r>   16.4774    0.0000 </r>
       <r>   19.7694    0.0000 </r>
      </set>
      <set comment="kpoint 10">
       <r>  -40.6789    1.0000 </r>
       <r>  -40.6634    1.0000 </r>
       <r>  -40.6366    1.0000 </r>
       <r>  -40.5943    1.0000 </r>
       <r>  -40.5362    1.0000 </r>
       <r>  -40.4714    1.0000 </r>
       <r>    5.1041    1.0000 </r>
       <r>    5.4218    1.0000 </r>
       <r>    5.8068    1.0000 </r>
       <r>    5.9809    1.0000 </r>
       <r>    6.0497    1.0000 </r>
       <r>    6.1376    1.0000 </r>
       <r>    7.5417    1.0000 </r>
       <r>    7.9417    1.0000 </r>
       <r>    8.3037    1.0000 </r>
       <r>    9.3504    0.0102 </r>
       <r>   12.7078    0.0000 </r>
       <r>   16.5953    0.0000 </r>
       <r>   18.2913    0.0000 </r>
       <r>   19.9930    0.0000 </r>
      </set>
      <set comment="kpoint 11">
       <r>  -40.7580    1.0000 </r>
       <r>  -40.4855    1.0000 </r>
       <r>  -40.4609    1.0000 </r>
       <r>  -40.4393    1.0000 </r>
       <r>  -40.4128    1.0000 </r>
       <r>  -40.4078    1.0000 </r>
       <r>    2.6369    1.0000 </r>
       <r>    4.3582    1.0000 </r>
       <r>    6.2378    1.0000 </r>
       <r>    6.2941    1.0000 </r>
       <r>    6.6132    1.0000 </r>
       <r>    6.6302    1.0000 </r>
       <r>    6.6566    1.0000 </r>
       <r>    7.8473    1.0000 </r>
       <r>    7.9685    1.0000 </r>
       <r>    8.0636    1.0000 </r>
       <r>    9.0759    0.9408 </r>
       <r>   11.4971    0.0000 </r>
       <r>   16.6382    0.0000 </r>
       <r>   25.8401    0.0000 </r>
      </set>
      <set comment="kpoint 12">
       <r>  -40.6845    1.0000 </r>
       <r>  -40.6731    1.0000 </r>
       <r>  -40.6226    1.0000 </r>
       <r>  -40.5098    1.0000 </r>
       <r>  -40.5066    1.0000 </r>
       <r>  -40.4733    1.0000 </r>
       <r>    4.8335    1.0000 </r>
       <r>    4.9248    1.0000 </r>
       <r>    5.5165    1.0000 </r>
       <r>    5.7754    1.0000 </r>
       <r>    6.4754    1.0000 </r>
       <r>    6.7550    1.0000 </r>
       <r>    7.4556    1.0000 </r>
       <r>    7.9484    1.0000 </r>
       <r>    8.7826    1.0000 </r>
       <r>    9.0052    0.9948 </r>
       <r>   10.2265    0.0000 </r>
       <r>   15.9928    0.0000 </r>
       <r>   16.7502    0.0000 </r>
       <r>   20.6667    0.0000 </r>
      </set>
      <set comment="kpoint 13">
       <r>  -40.7059    1.0000 </r>
       <r>  -40.6376    1.0000 </r>
       <r>  -40.5731    1.0000 </r>
       <r>  -40.5160    1.0000 </r>
       <r>  -40.4536    1.0000 </r>
       <r>  -40.4348    1.0000 </r>
       <r>    4.2571    1.0000 </r>
       <r>    4.7754    1.0000 </r>
       <r>    5.2105    1.0000 </r>
       <r>    6.5222    1.0000 </r>
       <r>    6.7254    1.0000 </r>
       <r>    6.8040    1.0000 </r>
       <r>    6.9909    1.0000 </r>
       <r>    8.1547    1.0000 </r>
       <r>    8.1651    1.0000 </r>
       <r>    8.8215    1.0000 </r>
       <r>    9.1777    0.5482 </r>
       <r>   13.4583    0.0000 </r>
       <r>   18.9620    0.0000 </r>
       <r>   22.0612    0.0000 </r>
      </set>
      <set comment="kpoint 14">
       <r>  -40.7041    1.0000 </r>
       <r>  -40.6943    1.0000 </r>
       <r>  -40.5993    1.0000 </r>
       <r>  -40.5137    1.0000 </r>
       <r>  -40.5021    1.0000 </r>
       <r>  -40.4865    1.0000 </r>
       <r>    4.7695    1.0000 </r>
       <r>    4.8350    1.0000 </r>
       <r>    5.4913    1.0000 </r>
       <r>    5.6583    1.0000 </r>
       <r>    6.6939    1.0000 </r>
       <r>    6.9083    1.0000 </r>
       <r>    7.4942    1.0000 </r>
       <r>    7.8581    1.0000 </r>
       <r>    9.0757    0.9411 </r>
       <r>    9.1236    0.8123 </r>
       <r>   10.8094    0.0000 </r>
       <r>   15.1368    0.0000 </r>
       <r>   16.8058    0.0000 </r>
       <r>   20.2031    0.0000 </r>
      </set>
      <set comment="kpoint 15">
       <r>  -40.7092    1.0000 </r>
       <r>  -40.6740    1.0000 </r>
       <r>  -40.5673    1.0000 </r>
       <r>  -40.5218    1.0000 </r>
       <r>  -40.4603    1.0000 </r>
       <r>  -40.4442    1.0000 </r>
       <r>    4.3550    1.0000 </r>
       <r>    4.6764    1.0000 </r>
       <r>    4.9466    1.0000 </r>
       <r>    6.5349    1.0000 </r>
       <r>    6.7653    1.0000 </r>
       <r>    6.9131    1.0000 </r>
       <r>    7.2853    1.0000 </r>
       <r>    8.4797    1.0000 </r>
       <r>    8.5501    1.0000 </r>
       <r>    9.1296    0.7885 </r>
       <r>    9.1577    0.6570 </r>
       <r>   13.0423    0.0000 </r>
       <r>   20.2461    0.0000 </r>
       <r>   20.7963    0.0000 </r>
      </set>
      <set comment="kpoint 16">
       <r>  -40.7009    1.0000 </r>
       <r>  -40.6892    1.0000 </r>
       <r>  -40.5914    1.0000 </r>
       <r>  -40.5842    1.0000 </r>
       <r>  -40.5178    1.0000 </r>
       <r>  -40.4908    1.0000 </r>
       <r>    5.1136    1.0000 </r>
       <r>    5.2860    1.0000 </r>
       <r>    5.3174    1.0000 </r>
       <r>    5.6212    1.0000 </r>
       <r>    6.4541    1.0000 </r>
       <r>    6.4655    1.0000 </r>
       <r>    7.5705    1.0000 </r>
       <r>    8.2158    1.0000 </r>
       <r>    8.8551    1.0000 </r>
       <r>    9.0082    0.9941 </r>
       <r>   13.7318    0.0000 </r>
       <r>   13.8389    0.0000 </r>
       <r>   17.7009    0.0000 </r>
       <r>   20.4474    0.0000 </r>
      </set>
      <set comment="kpoint 17">
       <r>  -40.7607    1.0000 </r>
       <r>  -40.4866    1.0000 </r>
       <r>  -40.4654    1.0000 </r>
       <r>  -40.4384    1.0000 </r>
       <r>  -40.4128    1.0000 </r>
       <r>  -40.4081    1.0000 </r>
       <r>    2.6330    1.0000 </r>
       <r>    4.3763    1.0000 </r>
       <r>    6.2073    1.0000 </r>
       <r>    6.3057    1.0000 </r>
       <r>    6.6100    1.0000 </r>
       <r>    6.6183    1.0000 </r>
       <r>    6.6691    1.0000 </r>
       <r>    7.8672    1.0000 </r>
       <r>    7.9617    1.0000 </r>
       <r>    8.0475    1.0000 </r>
       <r>    9.0974    0.8957 </r>
       <r>   11.8441    0.0000 </r>
       <r>   16.3117    0.0000 </r>
       <r>   25.7468    0.0000 </r>
      </set>
      <set comment="kpoint 18">
       <r>  -40.6754    1.0000 </r>
       <r>  -40.6247    1.0000 </r>
       <r>  -40.6212    1.0000 </r>
       <r>  -40.5243    1.0000 </r>
       <r>  -40.5000    1.0000 </r>
       <r>  -40.4329    1.0000 </r>
       <r>    4.8381    1.0000 </r>
       <r>    5.2126    1.0000 </r>
       <r>    5.6775    1.0000 </r>
       <r>    5.8013    1.0000 </r>
       <r>    6.1460    1.0000 </r>
       <r>    6.6050    1.0000 </r>
       <r>    7.3478    1.0000 </r>
       <r>    7.4619    1.0000 </r>
       <r>    7.8904    1.0000 </r>
       <r>    9.2091    0.3737 </r>
       <r>    9.5925    0.0000 </r>
       <r>   16.2620    0.0000 </r>
       <r>   17.1969    0.0000 </r>
       <r>   21.3194    0.0000 </r>
      </set>
      <set comment="kpoint 19">
       <r>  -40.7486    1.0000 </r>
       <r>  -40.7341    1.0000 </r>
       <r>  -40.5655    1.0000 </r>
       <r>  -40.5394    1.0000 </r>
       <r>  -40.4850    1.0000 </r>
       <r>  -40.4602    1.0000 </r>
       <r>    4.3100    1.0000 </r>
       <r>    4.3874    1.0000 </r>
       <r>    4.5804    1.0000 </r>
       <r>    6.2604    1.0000 </r>
       <r>    6.6796    1.0000 </r>
       <r>    7.8354    1.0000 </r>
       <r>    8.2590    1.0000 </r>
       <r>    8.7929    1.0000 </r>
       <r>    8.9791    0.9983 </r>
       <r>    9.4171    0.0005 </r>
       <r>   11.1754    0.0000 </r>
       <r>   13.9392    0.0000 </r>
       <r>   17.2080    0.0000 </r>
       <r>   19.7240    0.0000 </r>
      </set>
      <set comment="kpoint 20">
       <r>  -40.6913    1.0000 </r>
       <r>  -40.6870    1.0000 </r>
       <r>  -40.6040    1.0000 </r>
       <r>  -40.5883    1.0000 </r>
       <r>  -40.5032    1.0000 </r>
       <r>  -40.5020    1.0000 </r>
       <r>    5.3408    1.0000 </r>
       <r>    5.4024    1.0000 </r>
       <r>    5.4916    1.0000 </r>
       <r>    5.5313    1.0000 </r>
       <r>    6.1429    1.0000 </r>
       <r>    6.2805    1.0000 </r>
       <r>    7.7530    1.0000 </r>
       <r>    8.0840    1.0000 </r>
       <r>    8.7939    1.0000 </r>
       <r>    8.9502    0.9996 </r>
       <r>   13.2486    0.0000 </r>
       <r>   14.6278    0.0000 </r>
       <r>   17.7157    0.0000 </r>
       <r>   20.5608    0.0000 </r>
      </set>
      <set comment="kpoint 21">
       <r>  -40.7146    1.0000 </r>
       <r>  -40.5507    1.0000 </r>
       <r>  -40.5286    1.0000 </r>
       <r>  -40.4782    1.0000 </r>
       <r>  -40.4437    1.0000 </r>
       <r>  -40.4254    1.0000 </r>
       <r>    3.6824    1.0000 </r>
       <r>    5.0202    1.0000 </r>
       <r>    5.8255    1.0000 </r>
       <r>    5.9081    1.0000 </r>
       <r>    6.6481    1.0000 </r>
       <r>    6.8645    1.0000 </r>
       <r>    7.0018    1.0000 </r>
       <r>    7.3592    1.0000 </r>
       <r>    7.6435    1.0000 </r>
       <r>    8.3455    1.0000 </r>
       <r>    8.8551    1.0000 </r>
       <r>   12.6966    0.0000 </r>
       <r>   17.9433    0.0000 </r>
       <r>   24.0760    0.0000 </r>
      </set>
      <set comment="kpoint 22">
       <r>  -40.6918    1.0000 </r>
       <r>  -40.6647    1.0000 </r>
       <r>  -40.6087    1.0000 </r>
       <r>  -40.5110    1.0000 </r>
       <r>  -40.4975    1.0000 </r>
       <r>  -40.4844    1.0000 </r>
       <r>    4.8291    1.0000 </r>
       <r>    5.0612    1.0000 </r>
       <r>    5.3852    1.0000 </r>
       <r>    5.6894    1.0000 </r>
       <r>    6.5995    1.0000 </r>
       <r>    6.7345    1.0000 </r>
       <r>    7.6985    1.0000 </r>
       <r>    7.7474    1.0000 </r>
       <r>    8.8178    1.0000 </r>
       <r>    8.8882    1.0000 </r>
       <r>   10.0760    0.0000 </r>
       <r>   15.0046    0.0000 </r>
       <r>   17.0191    0.0000 </r>
       <r>   21.4365    0.0000 </r>
      </set>
      <set comment="kpoint 23">
       <r>  -40.7084    1.0000 </r>
       <r>  -40.5703    1.0000 </r>
       <r>  -40.5512    1.0000 </r>
       <r>  -40.4943    1.0000 </r>
       <r>  -40.4576    1.0000 </r>
       <r>  -40.4249    1.0000 </r>
       <r>    3.9579    1.0000 </r>
       <r>    5.2012    1.0000 </r>
       <r>    5.6247    1.0000 </r>
       <r>    5.8854    1.0000 </r>
       <r>    6.5150    1.0000 </r>
       <r>    6.8063    1.0000 </r>
       <r>    7.0691    1.0000 </r>
       <r>    7.5496    1.0000 </r>
       <r>    7.6086    1.0000 </r>
       <r>    8.5577    1.0000 </r>
       <r>    8.9433    0.9997 </r>
       <r>   13.7284    0.0000 </r>
       <r>   17.4970    0.0000 </r>
       <r>   23.3757    0.0000 </r>
      </set>
      <set comment="kpoint 24">
       <r>  -40.6704    1.0000 </r>
       <r>  -40.6445    1.0000 </r>
       <r>  -40.6338    1.0000 </r>
       <r>  -40.4997    1.0000 </r>
       <r>  -40.4669    1.0000 </r>
       <r>  -40.4553    1.0000 </r>
       <r>    4.5449    1.0000 </r>
       <r>    4.9171    1.0000 </r>
       <r>    5.5916    1.0000 </r>
       <r>    5.9201    1.0000 </r>
       <r>    6.5872    1.0000 </r>
       <r>    6.7735    1.0000 </r>
       <r>    7.1382    1.0000 </r>
       <r>    7.9622    1.0000 </r>
       <r>    8.5826    1.0000 </r>
       <r>    8.8344    1.0000 </r>
       <r>    8.9212    0.9999 </r>
       <r>   15.6268    0.0000 </r>
       <r>   17.4052    0.0000 </r>
       <r>   20.0337    0.0000 </r>
      </set>
      <set comment="kpoint 25">
       <r>  -40.7323    1.0000 </r>
       <r>  -40.7205    1.0000 </r>
       <r>  -40.5764    1.0000 </r>
       <r>  -40.5292    1.0000 </r>
       <r>  -40.4986    1.0000 </r>
       <r>  -40.4679    1.0000 </r>
       <r>    4.4857    1.0000 </r>
       <r>    4.5743    1.0000 </r>
       <r>    4.7996    1.0000 </r>
       <r>    6.1422    1.0000 </r>
       <r>    6.8771    1.0000 </r>
       <r>    7.2430    1.0000 </r>
       <r>    7.7395    1.0000 </r>
       <r>    8.5822    1.0000 </r>
       <r>    9.0381    0.9820 </r>
       <r>    9.3058    0.0455 </r>
       <r>   11.3427    0.0000 </r>
       <r>   13.9492    0.0000 </r>
       <r>   17.8592    0.0000 </r>
       <r>   19.6631    0.0000 </r>
      </set>
      <set comment="kpoint 26">
       <r>  -40.6957    1.0000 </r>
       <r>  -40.6738    1.0000 </r>
       <r>  -40.6365    1.0000 </r>
       <r>  -40.5975    1.0000 </r>
       <r>  -40.5090    1.0000 </r>
       <r>  -40.4958    1.0000 </r>
       <r>    4.9782    1.0000 </r>
       <r>    5.2626    1.0000 </r>
       <r>    5.5096    1.0000 </r>
       <r>    5.6857    1.0000 </r>
       <r>    6.3933    1.0000 </r>
       <r>    6.6778    1.0000 </r>
       <r>    7.7626    1.0000 </r>
       <r>    7.8595    1.0000 </r>
       <r>    8.7841    1.0000 </r>
       <r>    9.0803    0.9330 </r>
       <r>   15.1008    0.0000 </r>
       <r>   15.2023    0.0000 </r>
       <r>   16.9882    0.0000 </r>
       <r>   17.5285    0.0000 </r>
      </set>
      <set comment="kpoint 27">
       <r>  -40.7448    1.0000 </r>
       <r>  -40.5160    1.0000 </r>
       <r>  -40.4727    1.0000 </r>
       <r>  -40.4695    1.0000 </r>
       <r>  -40.4256    1.0000 </r>
       <r>  -40.4113    1.0000 </r>
       <r>    3.0163    1.0000 </r>
       <r>    4.6324    1.0000 </r>
       <r>    6.0299    1.0000 </r>
       <r>    6.1509    1.0000 </r>
       <r>    6.7437    1.0000 </r>
       <r>    6.7596    1.0000 </r>
       <r>    6.9043    1.0000 </r>
       <r>    7.4161    1.0000 </r>
       <r>    7.7243    1.0000 </r>
       <r>    8.1338    1.0000 </r>
       <r>    9.0095    0.9938 </r>
       <r>   12.5518    0.0000 </r>
       <r>   16.5788    0.0000 </r>
       <r>   25.3238    0.0000 </r>
      </set>
      <set comment="kpoint 28">
       <r>  -40.6846    1.0000 </r>
       <r>  -40.6134    1.0000 </r>
       <r>  -40.5855    1.0000 </r>
       <r>  -40.4945    1.0000 </r>
       <r>  -40.4698    1.0000 </r>
       <r>  -40.4403    1.0000 </r>
       <r>    4.3632    1.0000 </r>
       <r>    5.2002    1.0000 </r>
       <r>    5.7053    1.0000 </r>
       <r>    5.7430    1.0000 </r>
       <r>    6.4208    1.0000 </r>
       <r>    6.7174    1.0000 </r>
       <r>    7.2560    1.0000 </r>
       <r>    7.6986    1.0000 </r>
       <r>    7.8735    1.0000 </r>
       <r>    8.7777    1.0000 </r>
       <r>    8.7827    1.0000 </r>
       <r>   14.4812    0.0000 </r>
       <r>   17.8640    0.0000 </r>
       <r>   21.1578    0.0000 </r>
      </set>
      <set comment="kpoint 29">
       <r>  -40.6947    1.0000 </r>
       <r>  -40.6823    1.0000 </r>
       <r>  -40.5974    1.0000 </r>
       <r>  -40.5348    1.0000 </r>
       <r>  -40.5119    1.0000 </r>
       <r>  -40.4554    1.0000 </r>
       <r>    4.8451    1.0000 </r>
       <r>    4.8995    1.0000 </r>
       <r>    5.2026    1.0000 </r>
       <r>    6.2433    1.0000 </r>
       <r>    6.3999    1.0000 </r>
       <r>    6.7803    1.0000 </r>
       <r>    7.1799    1.0000 </r>
       <r>    8.2452    1.0000 </r>
       <r>    8.3905    1.0000 </r>
       <r>    9.2920    0.0675 </r>
       <r>   10.5314    0.0000 </r>
       <r>   14.9030    0.0000 </r>
       <r>   19.7187    0.0000 </r>
       <r>   20.4196    0.0000 </r>
      </set>
      <set comment="kpoint 30">
       <r>  -40.6765    1.0000 </r>
       <r>  -40.6630    1.0000 </r>
       <r>  -40.6268    1.0000 </r>
       <r>  -40.5292    1.0000 </r>
       <r>  -40.5148    1.0000 </r>
       <r>  -40.4661    1.0000 </r>
       <r>    5.2280    1.0000 </r>
       <r>    5.2609    1.0000 </r>
       <r>    5.5258    1.0000 </r>
       <r>    5.6570    1.0000 </r>
       <r>    6.2094    1.0000 </r>
       <r>    6.2399    1.0000 </r>
       <r>    7.8525    1.0000 </r>
       <r>    7.8788    1.0000 </r>
       <r>    8.1392    1.0000 </r>
       <r>    9.1012    0.8855 </r>
       <r>   10.5673    0.0000 </r>
       <r>   15.7513    0.0000 </r>
       <r>   17.5117    0.0000 </r>
       <r>   20.8642    0.0000 </r>
      </set>
      <set comment="kpoint 31">
       <r>  -40.6841    1.0000 </r>
       <r>  -40.6275    1.0000 </r>
       <r>  -40.5977    1.0000 </r>
       <r>  -40.5014    1.0000 </r>
       <r>  -40.4886    1.0000 </r>
       <r>  -40.4533    1.0000 </r>
       <r>    4.7480    1.0000 </r>
       <r>    5.3956    1.0000 </r>
       <r>    5.5829    1.0000 </r>
       <r>    5.6486    1.0000 </r>
       <r>    6.0418    1.0000 </r>
       <r>    6.5426    1.0000 </r>
       <r>    7.4217    1.0000 </r>
       <r>    8.0174    1.0000 </r>
       <r>    8.1805    1.0000 </r>
       <r>    8.8048    1.0000 </r>
       <r>    9.3209    0.0285 </r>
       <r>   13.4964    0.0000 </r>
       <r>   20.2205    0.0000 </r>
       <r>   20.7268    0.0000 </r>
      </set>
      <set comment="kpoint 32">
       <r>  -40.6941    1.0000 </r>
       <r>  -40.6748    1.0000 </r>
       <r>  -40.5965    1.0000 </r>
       <r>  -40.5384    1.0000 </r>
       <r>  -40.5100    1.0000 </r>
       <r>  -40.4829    1.0000 </r>
       <r>    5.0888    1.0000 </r>
       <r>    5.2649    1.0000 </r>
       <r>    5.4508    1.0000 </r>
       <r>    5.5173    1.0000 </r>
       <r>    6.3406    1.0000 </r>
       <r>    6.4055    1.0000 </r>
       <r>    7.8149    1.0000 </r>
       <r>    7.9618    1.0000 </r>
       <r>    8.5502    1.0000 </r>
       <r>    9.0634    0.9590 </r>
       <r>   11.0083    0.0000 </r>
       <r>   14.7049    0.0000 </r>
       <r>   17.5486    0.0000 </r>
       <r>   21.5442    0.0000 </r>
      </set>
      <set comment="kpoint 33">
       <r>  -40.7203    1.0000 </r>
       <r>  -40.5647    1.0000 </r>
       <r>  -40.5323    1.0000 </r>
       <r>  -40.4846    1.0000 </r>
       <r>  -40.4362    1.0000 </r>
       <r>  -40.4269    1.0000 </r>
       <r>    3.6490    1.0000 </r>
       <r>    4.9361    1.0000 </r>
       <r>    5.8134    1.0000 </r>
       <r>    5.9944    1.0000 </r>
       <r>    6.8453    1.0000 </r>
       <r>    6.8741    1.0000 </r>
       <r>    6.9104    1.0000 </r>
       <r>    7.3197    1.0000 </r>
       <r>    7.7607    1.0000 </r>
       <r>    8.2716    1.0000 </r>
       <r>    8.9382    0.9998 </r>
       <r>   14.0274    0.0000 </r>
       <r>   16.5430    0.0000 </r>
       <r>   23.2021    0.0000 </r>
      </set>
      <set comment="kpoint 34">
       <r>  -40.7144    1.0000 </r>
       <r>  -40.5756    1.0000 </r>
       <r>  -40.5544    1.0000 </r>
       <r>  -40.4924    1.0000 </r>
       <r>  -40.4478    1.0000 </r>
       <r>  -40.4202    1.0000 </r>
       <r>    3.8524    1.0000 </r>
       <r>    5.0296    1.0000 </r>
       <r>    5.6761    1.0000 </r>
       <r>    6.0125    1.0000 </r>
       <r>    6.7108    1.0000 </r>
       <r>    6.8088    1.0000 </r>
       <r>    6.9413    1.0000 </r>
       <r>    7.4965    1.0000 </r>
       <r>    7.6815    1.0000 </r>
       <r>    8.4656    1.0000 </r>
       <r>    9.0327    0.9851 </r>
       <r>   14.5322    0.0000 </r>
       <r>   16.4450    0.0000 </r>
       <r>   23.1447    0.0000 </r>
      </set>
      <set comment="kpoint 35">
       <r>  -40.7298    1.0000 </r>
       <r>  -40.7028    1.0000 </r>
       <r>  -40.6125    1.0000 </r>
       <r>  -40.5458    1.0000 </r>
       <r>  -40.5172    1.0000 </r>
       <r>  -40.4837    1.0000 </r>
       <r>    4.5988    1.0000 </r>
       <r>    4.9076    1.0000 </r>
       <r>    5.1094    1.0000 </r>
       <r>    5.7940    1.0000 </r>
       <r>    6.9731    1.0000 </r>
       <r>    7.2111    1.0000 </r>
       <r>    7.4233    1.0000 </r>
       <r>    8.3430    1.0000 </r>
       <r>    9.0295    0.9867 </r>
       <r>    9.1073    0.8680 </r>
       <r>   13.6855    0.0000 </r>
       <r>   15.7808    0.0000 </r>
       <r>   16.3855    0.0000 </r>
       <r>   17.6070    0.0000 </r>
      </set>
      <set comment="kpoint 36">
       <r>  -40.7108    1.0000 </r>
       <r>  -40.6873    1.0000 </r>
       <r>  -40.6251    1.0000 </r>
       <r>  -40.5616    1.0000 </r>
       <r>  -40.5185    1.0000 </r>
       <r>  -40.4829    1.0000 </r>
       <r>    4.8061    1.0000 </r>
       <r>    5.1219    1.0000 </r>
       <r>    5.3123    1.0000 </r>
       <r>    5.7503    1.0000 </r>
       <r>    6.5949    1.0000 </r>
       <r>    6.9610    1.0000 </r>
       <r>    7.4231    1.0000 </r>
       <r>    8.1480    1.0000 </r>
       <r>    8.8360    1.0000 </r>
       <r>    9.1451    0.7200 </r>
       <r>   13.1098    0.0000 </r>
       <r>   16.4584    0.0000 </r>
       <r>   17.1538    0.0000 </r>
       <r>   17.8223    0.0000 </r>
      </set>
      <set comment="kpoint 37">
       <r>  -40.6990    1.0000 </r>
       <r>  -40.5876    1.0000 </r>
       <r>  -40.5488    1.0000 </r>
       <r>  -40.4761    1.0000 </r>
       <r>  -40.4481    1.0000 </r>
       <r>  -40.4436    1.0000 </r>
       <r>    3.9757    1.0000 </r>
       <r>    5.1506    1.0000 </r>
       <r>    5.7132    1.0000 </r>
       <r>    5.8672    1.0000 </r>
       <r>    6.6016    1.0000 </r>
       <r>    6.9250    1.0000 </r>
       <r>    7.1606    1.0000 </r>
       <r>    7.4133    1.0000 </r>
       <r>    7.7505    1.0000 </r>
       <r>    8.4132    1.0000 </r>
       <r>    8.6085    1.0000 </r>
       <r>   13.4154    0.0000 </r>
       <r>   18.0523    0.0000 </r>
       <r>   22.1738    0.0000 </r>
      </set>
      <set comment="kpoint 38">
       <r>  -40.6815    1.0000 </r>
       <r>  -40.6044    1.0000 </r>
       <r>  -40.5763    1.0000 </r>
       <r>  -40.4830    1.0000 </r>
       <r>  -40.4698    1.0000 </r>
       <r>  -40.4522    1.0000 </r>
       <r>    4.3543    1.0000 </r>
       <r>    5.3236    1.0000 </r>
       <r>    5.5335    1.0000 </r>
       <r>    5.8702    1.0000 </r>
       <r>    6.2762    1.0000 </r>
       <r>    6.8446    1.0000 </r>
       <r>    7.4167    1.0000 </r>
       <r>    7.6092    1.0000 </r>
       <r>    7.9028    1.0000 </r>
       <r>    8.5234    1.0000 </r>
       <r>    8.6501    1.0000 </r>
       <r>   13.4536    0.0000 </r>
       <r>   19.0432    0.0000 </r>
       <r>   21.1283    0.0000 </r>
      </set>
      <set comment="kpoint 39">
       <r>  -40.6624    1.0000 </r>
       <r>  -40.6387    1.0000 </r>
       <r>  -40.6324    1.0000 </r>
       <r>  -40.5152    1.0000 </r>
       <r>  -40.5082    1.0000 </r>
       <r>  -40.4509    1.0000 </r>
       <r>    5.0143    1.0000 </r>
       <r>    5.2476    1.0000 </r>
[...]
       <r>   16.8652    0.0000 </r>
       <r>   20.5337    0.0000 </r>
      </set>
      <set comment="kpoint 324">
       <r>  -40.6760    1.0000 </r>
       <r>  -40.6646    1.0000 </r>
       <r>  -40.6390    1.0000 </r>
       <r>  -40.6195    1.0000 </r>
       <r>  -40.5058    1.0000 </r>
       <r>  -40.5000    1.0000 </r>
       <r>    5.2249    1.0000 </r>
       <r>    5.3735    1.0000 </r>
       <r>    5.7025    1.0000 </r>
       <r>    5.7268    1.0000 </r>
       <r>    6.1427    1.0000 </r>
       <r>    6.2439    1.0000 </r>
       <r>    7.8001    1.0000 </r>
       <r>    7.8638    1.0000 </r>
       <r>    8.8295    1.0000 </r>
       <r>    8.9062    1.0000 </r>
       <r>   14.3942    0.0000 </r>
       <r>   15.0647    0.0000 </r>
       <r>   18.4180    0.0000 </r>
       <r>   18.5977    0.0000 </r>
      </set>
      <set comment="kpoint 325">
       <r>  -40.6257    1.0000 </r>
       <r>  -40.6122    1.0000 </r>
       <r>  -40.4933    1.0000 </r>
       <r>  -40.4897    1.0000 </r>
       <r>  -40.4633    1.0000 </r>
       <r>  -40.4360    1.0000 </r>
       <r>    4.7374    1.0000 </r>
       <r>    4.7632    1.0000 </r>
       <r>    5.4540    1.0000 </r>
       <r>    5.7127    1.0000 </r>
       <r>    6.5694    1.0000 </r>
       <r>    6.6521    1.0000 </r>
       <r>    7.4248    1.0000 </r>
       <r>    7.5839    1.0000 </r>
       <r>    7.6116    1.0000 </r>
       <r>    8.2802    1.0000 </r>
       <r>    9.2394    0.2264 </r>
       <r>    9.3634    0.0061 </r>
       <r>   23.7315    0.0000 </r>
       <r>   24.0195    0.0000 </r>
      </set>
      <set comment="kpoint 326">
       <r>  -40.6577    1.0000 </r>
       <r>  -40.6424    1.0000 </r>
       <r>  -40.5064    1.0000 </r>
       <r>  -40.4927    1.0000 </r>
       <r>  -40.4857    1.0000 </r>
       <r>  -40.4381    1.0000 </r>
       <r>    4.6364    1.0000 </r>
       <r>    4.7190    1.0000 </r>
       <r>    5.0911    1.0000 </r>
       <r>    6.1784    1.0000 </r>
       <r>    6.6006    1.0000 </r>
       <r>    7.0298    1.0000 </r>
       <r>    7.1884    1.0000 </r>
       <r>    7.9179    1.0000 </r>
       <r>    7.9499    1.0000 </r>
       <r>    8.8722    1.0000 </r>
       <r>    9.5425    0.0000 </r>
       <r>    9.5866    0.0000 </r>
       <r>   22.1416    0.0000 </r>
       <r>   23.1759    0.0000 </r>
      </set>
      <set comment="kpoint 327">
       <r>  -40.6962    1.0000 </r>
       <r>  -40.6884    1.0000 </r>
       <r>  -40.5915    1.0000 </r>
       <r>  -40.5220    1.0000 </r>
       <r>  -40.5173    1.0000 </r>
       <r>  -40.4697    1.0000 </r>
       <r>    4.8706    1.0000 </r>
       <r>    4.9319    1.0000 </r>
       <r>    5.2625    1.0000 </r>
       <r>    6.0074    1.0000 </r>
       <r>    6.3759    1.0000 </r>
       <r>    6.7297    1.0000 </r>
       <r>    7.3680    1.0000 </r>
       <r>    8.1913    1.0000 </r>
       <r>    8.7468    1.0000 </r>
       <r>    9.1610    0.6395 </r>
       <r>   10.7848    0.0000 </r>
       <r>   14.2137    0.0000 </r>
       <r>   18.9951    0.0000 </r>
       <r>   20.1803    0.0000 </r>
      </set>
      <set comment="kpoint 328">
       <r>  -40.7035    1.0000 </r>
       <r>  -40.6896    1.0000 </r>
       <r>  -40.5636    1.0000 </r>
       <r>  -40.5188    1.0000 </r>
       <r>  -40.4776    1.0000 </r>
       <r>  -40.4646    1.0000 </r>
       <r>    4.5884    1.0000 </r>
       <r>    4.7960    1.0000 </r>
       <r>    4.9811    1.0000 </r>
       <r>    6.2823    1.0000 </r>
       <r>    6.5891    1.0000 </r>
       <r>    7.0269    1.0000 </r>
       <r>    7.0797    1.0000 </r>
       <r>    8.5196    1.0000 </r>
       <r>    8.9359    0.9998 </r>
       <r>    9.0067    0.9945 </r>
       <r>    9.8255    0.0000 </r>
       <r>   12.6965    0.0000 </r>
       <r>   20.2756    0.0000 </r>
       <r>   20.9961    0.0000 </r>
      </set>
     </set>
    </set>
   </array>
  </eigenvalues>
  <separator name="orbital magnetization" >
   <v name="MAGDIPOLOUT">      0.00000000      0.00000000      0.00000000</v>
  </separator>
  <dos>
   <i name="efermi">      9.18630085 </i>
   <total>
    <array>
     <dimension dim="1">gridpoints</dimension>
     <dimension dim="2">spin</dimension>
     <field>energy</field>
     <field>total</field>
     <field>integrated</field>
     <set>
      <set comment="spin 1">
       <r>   -44.1402     0.0000     0.0000 </r>
       <r>   -43.8934     0.0000     0.0000 </r>
       <r>   -43.6467     0.0000     0.0000 </r>
       <r>   -43.3999     0.0000     0.0000 </r>
       <r>   -43.1532     0.0000     0.0000 </r>
       <r>   -42.9064     0.0000     0.0000 </r>
       <r>   -42.6597     0.0000     0.0000 </r>
       <r>   -42.4129     0.0000     0.0000 </r>
       <r>   -42.1662     0.0000     0.0000 </r>
       <r>   -41.9194     0.0000     0.0000 </r>
       <r>   -41.6727     0.0000     0.0000 </r>
       <r>   -41.4259     0.0000     0.0000 </r>
       <r>   -41.1792     0.0000     0.0000 </r>
       <r>   -40.9324     0.0157     0.0039 </r>
       <r>   -40.6857     8.6641     2.1417 </r>
       <r>   -40.4389    32.2255    10.0934 </r>
       <r>   -40.1922     7.7245    11.9994 </r>
       <r>   -39.9454     0.0026    12.0000 </r>
       <r>   -39.6987     0.0000    12.0000 </r>
       <r>   -39.4519     0.0000    12.0000 </r>
       <r>   -39.2052     0.0000    12.0000 </r>
       <r>   -38.9584     0.0000    12.0000 </r>
       <r>   -38.7117     0.0000    12.0000 </r>
       <r>   -38.4649     0.0000    12.0000 </r>
       <r>   -38.2182     0.0000    12.0000 </r>
       <r>   -37.9714     0.0000    12.0000 </r>
       <r>   -37.7247     0.0000    12.0000 </r>
       <r>   -37.4779     0.0000    12.0000 </r>
       <r>   -37.2312     0.0000    12.0000 </r>
       <r>   -36.9844     0.0000    12.0000 </r>
       <r>   -36.7377     0.0000    12.0000 </r>
       <r>   -36.4909     0.0000    12.0000 </r>
       <r>   -36.2442     0.0000    12.0000 </r>
       <r>   -35.9974     0.0000    12.0000 </r>
       <r>   -35.7507     0.0000    12.0000 </r>
       <r>   -35.5039     0.0000    12.0000 </r>
       <r>   -35.2572     0.0000    12.0000 </r>
       <r>   -35.0104     0.0000    12.0000 </r>
       <r>   -34.7637     0.0000    12.0000 </r>
       <r>   -34.5169     0.0000    12.0000 </r>
       <r>   -34.2702     0.0000    12.0000 </r>
       <r>   -34.0234     0.0000    12.0000 </r>
       <r>   -33.7767     0.0000    12.0000 </r>
       <r>   -33.5300     0.0000    12.0000 </r>
       <r>   -33.2832     0.0000    12.0000 </r>
       <r>   -33.0365     0.0000    12.0000 </r>
       <r>   -32.7897     0.0000    12.0000 </r>
       <r>   -32.5430     0.0000    12.0000 </r>
       <r>   -32.2962     0.0000    12.0000 </r>
       <r>   -32.0495     0.0000    12.0000 </r>
       <r>   -31.8027     0.0000    12.0000 </r>
       <r>   -31.5560     0.0000    12.0000 </r>
       <r>   -31.3092     0.0000    12.0000 </r>
       <r>   -31.0625     0.0000    12.0000 </r>
       <r>   -30.8157     0.0000    12.0000 </r>
       <r>   -30.5690     0.0000    12.0000 </r>
       <r>   -30.3222     0.0000    12.0000 </r>
       <r>   -30.0755     0.0000    12.0000 </r>
       <r>   -29.8287     0.0000    12.0000 </r>
       <r>   -29.5820     0.0000    12.0000 </r>
       <r>   -29.3352     0.0000    12.0000 </r>
       <r>   -29.0885     0.0000    12.0000 </r>
       <r>   -28.8417     0.0000    12.0000 </r>
       <r>   -28.5950     0.0000    12.0000 </r>
       <r>   -28.3482     0.0000    12.0000 </r>
       <r>   -28.1015     0.0000    12.0000 </r>
       <r>   -27.8547     0.0000    12.0000 </r>
       <r>   -27.6080     0.0000    12.0000 </r>
       <r>   -27.3612     0.0000    12.0000 </r>
       <r>   -27.1145     0.0000    12.0000 </r>
       <r>   -26.8677     0.0000    12.0000 </r>
       <r>   -26.6210     0.0000    12.0000 </r>
       <r>   -26.3742     0.0000    12.0000 </r>
       <r>   -26.1275     0.0000    12.0000 </r>
       <r>   -25.8807     0.0000    12.0000 </r>
       <r>   -25.6340     0.0000    12.0000 </r>
       <r>   -25.3872     0.0000    12.0000 </r>
       <r>   -25.1405     0.0000    12.0000 </r>
       <r>   -24.8937     0.0000    12.0000 </r>
       <r>   -24.6470     0.0000    12.0000 </r>
       <r>   -24.4002     0.0000    12.0000 </r>
       <r>   -24.1535     0.0000    12.0000 </r>
       <r>   -23.9067     0.0000    12.0000 </r>
       <r>   -23.6600     0.0000    12.0000 </r>
       <r>   -23.4132     0.0000    12.0000 </r>
       <r>   -23.1665     0.0000    12.0000 </r>
       <r>   -22.9197     0.0000    12.0000 </r>
       <r>   -22.6730     0.0000    12.0000 </r>
       <r>   -22.4262     0.0000    12.0000 </r>
       <r>   -22.1795     0.0000    12.0000 </r>
       <r>   -21.9327     0.0000    12.0000 </r>
       <r>   -21.6860     0.0000    12.0000 </r>
       <r>   -21.4392     0.0000    12.0000 </r>
       <r>   -21.1925     0.0000    12.0000 </r>
       <r>   -20.9457     0.0000    12.0000 </r>
       <r>   -20.6990     0.0000    12.0000 </r>
       <r>   -20.4522     0.0000    12.0000 </r>
       <r>   -20.2055     0.0000    12.0000 </r>
       <r>   -19.9588     0.0000    12.0000 </r>
       <r>   -19.7120     0.0000    12.0000 </r>
       <r>   -19.4653     0.0000    12.0000 </r>
       <r>   -19.2185     0.0000    12.0000 </r>
       <r>   -18.9718     0.0000    12.0000 </r>
       <r>   -18.7250     0.0000    12.0000 </r>
       <r>   -18.4783     0.0000    12.0000 </r>
       <r>   -18.2315     0.0000    12.0000 </r>
       <r>   -17.9848     0.0000    12.0000 </r>
       <r>   -17.7380     0.0000    12.0000 </r>
       <r>   -17.4913     0.0000    12.0000 </r>
       <r>   -17.2445     0.0000    12.0000 </r>
       <r>   -16.9978     0.0000    12.0000 </r>
       <r>   -16.7510     0.0000    12.0000 </r>
       <r>   -16.5043     0.0000    12.0000 </r>
       <r>   -16.2575     0.0000    12.0000 </r>
       <r>   -16.0108     0.0000    12.0000 </r>
       <r>   -15.7640     0.0000    12.0000 </r>
       <r>   -15.5173     0.0000    12.0000 </r>
       <r>   -15.2705     0.0000    12.0000 </r>
       <r>   -15.0238     0.0000    12.0000 </r>
       <r>   -14.7770     0.0000    12.0000 </r>
       <r>   -14.5303     0.0000    12.0000 </r>
       <r>   -14.2835     0.0000    12.0000 </r>
       <r>   -14.0368     0.0000    12.0000 </r>
       <r>   -13.7900     0.0000    12.0000 </r>
       <r>   -13.5433     0.0000    12.0000 </r>
       <r>   -13.2965     0.0000    12.0000 </r>
       <r>   -13.0498     0.0000    12.0000 </r>
       <r>   -12.8030     0.0000    12.0000 </r>
       <r>   -12.5563     0.0000    12.0000 </r>
       <r>   -12.3095     0.0000    12.0000 </r>
       <r>   -12.0628     0.0000    12.0000 </r>
       <r>   -11.8160     0.0000    12.0000 </r>
       <r>   -11.5693     0.0000    12.0000 </r>
       <r>   -11.3225     0.0000    12.0000 </r>
       <r>   -11.0758     0.0000    12.0000 </r>
       <r>   -10.8290     0.0000    12.0000 </r>
       <r>   -10.5823     0.0000    12.0000 </r>
       <r>   -10.3355     0.0000    12.0000 </r>
       <r>   -10.0888     0.0000    12.0000 </r>
       <r>    -9.8420     0.0000    12.0000 </r>
       <r>    -9.5953     0.0000    12.0000 </r>
       <r>    -9.3485     0.0000    12.0000 </r>
       <r>    -9.1018     0.0000    12.0000 </r>
       <r>    -8.8550     0.0000    12.0000 </r>
       <r>    -8.6083     0.0000    12.0000 </r>
       <r>    -8.3615     0.0000    12.0000 </r>
       <r>    -8.1148     0.0000    12.0000 </r>
       <r>    -7.8680     0.0000    12.0000 </r>
       <r>    -7.6213     0.0000    12.0000 </r>
       <r>    -7.3745     0.0000    12.0000 </r>
       <r>    -7.1278     0.0000    12.0000 </r>
       <r>    -6.8811     0.0000    12.0000 </r>
       <r>    -6.6343     0.0000    12.0000 </r>
       <r>    -6.3876     0.0000    12.0000 </r>
       <r>    -6.1408     0.0000    12.0000 </r>
       <r>    -5.8941     0.0000    12.0000 </r>
       <r>    -5.6473     0.0000    12.0000 </r>
       <r>    -5.4006     0.0000    12.0000 </r>
       <r>    -5.1538     0.0000    12.0000 </r>
       <r>    -4.9071     0.0000    12.0000 </r>
       <r>    -4.6603     0.0000    12.0000 </r>
       <r>    -4.4136     0.0000    12.0000 </r>
       <r>    -4.1668     0.0000    12.0000 </r>
       <r>    -3.9201     0.0000    12.0000 </r>
       <r>    -3.6733     0.0000    12.0000 </r>
       <r>    -3.4266     0.0000    12.0000 </r>
       <r>    -3.1798     0.0000    12.0000 </r>
       <r>    -2.9331     0.0000    12.0000 </r>
       <r>    -2.6863     0.0000    12.0000 </r>
       <r>    -2.4396     0.0000    12.0000 </r>
       <r>    -2.1928     0.0000    12.0000 </r>
       <r>    -1.9461     0.0000    12.0000 </r>
       <r>    -1.6993     0.0000    12.0000 </r>
       <r>    -1.4526     0.0000    12.0000 </r>
       <r>    -1.2058     0.0000    12.0000 </r>
       <r>    -0.9591     0.0000    12.0000 </r>
       <r>    -0.7123     0.0000    12.0000 </r>
       <r>    -0.4656     0.0000    12.0000 </r>
       <r>    -0.2188     0.0000    12.0000 </r>
       <r>     0.0279     0.0000    12.0000 </r>
       <r>     0.2747     0.0000    12.0000 </r>
       <r>     0.5214     0.0000    12.0000 </r>
       <r>     0.7682     0.0000    12.0000 </r>
       <r>     1.0149     0.0000    12.0000 </r>
       <r>     1.2617     0.0000    12.0000 </r>
       <r>     1.5084     0.0000    12.0000 </r>
       <r>     1.7552     0.0000    12.0000 </r>
       <r>     2.0019     0.0000    12.0000 </r>
       <r>     2.2487     0.0069    12.0017 </r>
       <r>     2.4954     0.0370    12.0108 </r>
       <r>     2.7422     0.1374    12.0447 </r>
       <r>     2.9889     0.0724    12.0626 </r>
       <r>     3.2357     0.2112    12.1147 </r>
       <r>     3.4824     0.2631    12.1796 </r>
       <r>     3.7292     0.0948    12.2030 </r>
       <r>     3.9759     0.5107    12.3291 </r>
       <r>     4.2227     1.0905    12.5981 </r>
       <r>     4.4694     2.5925    13.2378 </r>
       <r>     4.7162     4.0641    14.2407 </r>
       <r>     4.9629     4.8834    15.4456 </r>
       <r>     5.2097     3.6845    16.3548 </r>
       <r>     5.4564     3.2107    17.1470 </r>
       <r>     5.7032     3.2447    17.9476 </r>
       <r>     5.9499     3.1950    18.7360 </r>
       <r>     6.1967     3.5836    19.6202 </r>
       <r>     6.4434     3.9893    20.6046 </r>
       <r>     6.6901     4.7213    21.7696 </r>
       <r>     6.9369     6.0989    23.2745 </r>
       <r>     7.1836     3.7787    24.2069 </r>
       <r>     7.4304     3.2932    25.0194 </r>
       <r>     7.6771     3.7021    25.9329 </r>
       <r>     7.9239     4.1142    26.9481 </r>
       <r>     8.1706     3.8417    27.8960 </r>
       <r>     8.4174     3.3950    28.7337 </r>
       <r>     8.6641     3.4113    29.5755 </r>
       <r>     8.9109     3.7544    30.5019 </r>
       <r>     9.1576     5.4613    31.8495 </r>
       <r>     9.4044     3.6157    32.7416 </r>
       <r>     9.6511     0.9733    32.9818 </r>
       <r>     9.8979     0.3714    33.0734 </r>
       <r>    10.1446     0.4888    33.1940 </r>
       <r>    10.3914     0.6205    33.3472 </r>
       <r>    10.6381     0.5696    33.4877 </r>
       <r>    10.8849     0.4775    33.6055 </r>
       <r>    11.1316     0.4022    33.7048 </r>
       <r>    11.3784     0.4737    33.8216 </r>
       <r>    11.6251     0.5157    33.9489 </r>
       <r>    11.8719     0.3542    34.0363 </r>
       <r>    12.1186     0.6680    34.2011 </r>
       <r>    12.3654     0.5171    34.3287 </r>
       <r>    12.6121     0.5484    34.4640 </r>
       <r>    12.8589     0.6158    34.6160 </r>
       <r>    13.1056     0.5003    34.7395 </r>
       <r>    13.3524     0.3885    34.8353 </r>
       <r>    13.5991     0.4407    34.9441 </r>
       <r>    13.8459     0.4317    35.0506 </r>
       <r>    14.0926     0.3684    35.1415 </r>
       <r>    14.3394     0.3889    35.2374 </r>
       <r>    14.5861     0.5763    35.3796 </r>
       <r>    14.8329     0.4298    35.4857 </r>
       <r>    15.0796     0.3911    35.5822 </r>
       <r>    15.3264     0.3120    35.6592 </r>
       <r>    15.5731     0.2604    35.7234 </r>
       <r>    15.8199     0.2492    35.7849 </r>
       <r>    16.0666     0.2639    35.8500 </r>
       <r>    16.3134     0.3041    35.9251 </r>
       <r>    16.5601     0.9017    36.1476 </r>
       <r>    16.8069     0.6649    36.3116 </r>
       <r>    17.0536     0.6199    36.4646 </r>
       <r>    17.3004     0.7207    36.6424 </r>
       <r>    17.5471     0.6867    36.8119 </r>
       <r>    17.7939     0.5306    36.9428 </r>
       <r>    18.0406     0.5873    37.0877 </r>
       <r>    18.2874     0.6086    37.2379 </r>
       <r>    18.5341     0.5133    37.3645 </r>
       <r>    18.7809     0.6649    37.5286 </r>
       <r>    19.0276     0.3948    37.6260 </r>
       <r>    19.2744     0.3938    37.7232 </r>
       <r>    19.5211     0.5835    37.8672 </r>
       <r>    19.7679     0.7233    38.0456 </r>
       <r>    20.0146     0.6438    38.2045 </r>
       <r>    20.2613     0.6288    38.3597 </r>
       <r>    20.5081     0.6370    38.5169 </r>
       <r>    20.7548     0.5396    38.6500 </r>
       <r>    21.0016     0.4582    38.7631 </r>
       <r>    21.2483     0.4165    38.8659 </r>
       <r>    21.4951     0.4058    38.9660 </r>
       <r>    21.7418     0.3891    39.0620 </r>
       <r>    21.9886     0.3817    39.1562 </r>
       <r>    22.2353     0.2646    39.2215 </r>
       <r>    22.4821     0.2183    39.2753 </r>
       <r>    22.7288     0.2491    39.3368 </r>
       <r>    22.9756     0.2984    39.4104 </r>
       <r>    23.2223     0.3274    39.4912 </r>
       <r>    23.4691     0.2358    39.5494 </r>
       <r>    23.7158     0.1441    39.5850 </r>
       <r>    23.9626     0.1491    39.6218 </r>
       <r>    24.2093     0.2812    39.6911 </r>
       <r>    24.4561     0.1425    39.7263 </r>
       <r>    24.7028     0.0787    39.7457 </r>
       <r>    24.9496     0.2041    39.7961 </r>
       <r>    25.1963     0.1242    39.8267 </r>
       <r>    25.4431     0.1298    39.8587 </r>
       <r>    25.6898     0.1039    39.8844 </r>
       <r>    25.9366     0.1920    39.9317 </r>
       <r>    26.1833     0.1544    39.9698 </r>
       <r>    26.4301     0.0787    39.9892 </r>
       <r>    26.6768     0.0432    39.9999 </r>
       <r>    26.9236     0.0003    40.0000 </r>
       <r>    27.1703     0.0000    40.0000 </r>
       <r>    27.4171     0.0000    40.0000 </r>
       <r>    27.6638     0.0000    40.0000 </r>
       <r>    27.9106     0.0000    40.0000 </r>
       <r>    28.1573     0.0000    40.0000 </r>
       <r>    28.4041     0.0000    40.0000 </r>
       <r>    28.6508     0.0000    40.0000 </r>
       <r>    28.8976     0.0000    40.0000 </r>
       <r>    29.1443     0.0000    40.0000 </r>
       <r>    29.3911     0.0000    40.0000 </r>
       <r>    29.6378     0.0000    40.0000 </r>
       <r>    29.8846     0.0000    40.0000 </r>
      </set>
     </set>
    </array>
   </total>
  </dos>
 </calculation>
 <structure name="finalpos" >
  <crystal>
   <varray name="basis" >
    <v>       3.92700000       1.96350000       1.96350000 </v>
    <v>       1.96350000       3.92700000       1.96350000 </v>
    <v>       1.96350000       1.96350000       3.92700000 </v>
   </varray>
   <i name="volume">     30.27977949 </i>
   <varray name="rec_basis" >
    <v>       0.38197097      -0.12732366      -0.12732366 </v>
    <v>      -0.12732366       0.38197097      -0.12732366 </v>
    <v>      -0.12732366      -0.12732366       0.38197097 </v>
   </varray>
  </crystal>
  <varray name="positions" >
   <v>       0.00207919       0.00000000       0.00000000 </v>
   <v>       0.50000000       0.50000000       0.50000000 </v>
  </varray>
 </structure>
</modeling>
