natom:   16
displacements:
- atom:    1
  direction:
    [   1.0000000000000000,  0.0000000000000000,  0.0000000000000000 ]
  displacement:
    [   0.0081649658092773,  0.0040824829046386,  0.0040824829046386 ]
lattice:
- [     7.854000000000000,     3.927000000000000,     3.927000000000000 ] # a
- [     3.927000000000000,     7.854000000000000,     3.927000000000000 ] # b
- [     3.927000000000000,     3.927000000000000,     7.854000000000000 ] # c
points:
- symbol: Pd # 1
  coordinates: [  0.000000000000000,  0.000000000000000,  0.000000000000000 ]
  mass: 106.420000
- symbol: Pd # 2
  coordinates: [  0.750000000000000,  0.250000000000000,  0.250000000000000 ]
  mass: 106.420000
- symbol: Pd # 3
  coordinates: [  0.500000000000000,  0.500000000000000,  0.500000000000000 ]
  mass: 106.420000
- symbol: Pd # 4
  coordinates: [  0.250000000000000,  0.750000000000000,  0.750000000000000 ]
  mass: 106.420000
- symbol: Pd # 5
  coordinates: [  0.250000000000000,  0.750000000000000,  0.250000000000000 ]
  mass: 106.420000
- symbol: Pd # 6
  coordinates: [  0.000000000000000,  0.000000000000000,  0.500000000000000 ]
  mass: 106.420000
- symbol: Pd # 7
  coordinates: [  0.750000000000000,  0.250000000000000,  0.750000000000000 ]
  mass: 106.420000
- symbol: Pd # 8
  coordinates: [  0.500000000000000,  0.500000000000000,  0.000000000000000 ]
  mass: 106.420000
- symbol: Pd # 9
  coordinates: [  0.250000000000000,  0.250000000000000,  0.750000000000000 ]
  mass: 106.420000
- symbol: Pd # 10
  coordinates: [  0.000000000000000,  0.500000000000000,  0.000000000000000 ]
  mass: 106.420000
- symbol: Pd # 11
  coordinates: [  0.750000000000000,  0.750000000000000,  0.250000000000000 ]
  mass: 106.420000
- symbol: Pd # 12
  coordinates: [  0.500000000000000,  0.000000000000000,  0.500000000000000 ]
  mass: 106.420000
- symbol: Pd # 13
  coordinates: [  0.500000000000000,  0.000000000000000,  0.000000000000000 ]
  mass: 106.420000
- symbol: Pd # 14
  coordinates: [  0.250000000000000,  0.250000000000000,  0.250000000000000 ]
  mass: 106.420000
- symbol: Pd # 15
  coordinates: [  0.000000000000000,  0.500000000000000,  0.500000000000000 ]
  mass: 106.420000
- symbol: Pd # 16
  coordinates: [  0.750000000000000,  0.750000000000000,  0.750000000000000 ]
  mass: 106.420000