natom:    2
displacements:
- atom:    1
  direction:
    [   1.0000000000000000,  0.0000000000000000,  0.0000000000000000 ]
  displacement:
    [   0.0081649658092773,  0.0040824829046386,  0.0040824829046386 ]
lattice:
- [     3.927000000000000,     1.963500000000000,     1.963500000000000 ] # a
- [     1.963500000000000,     3.927000000000000,     1.963500000000000 ] # b
- [     1.963500000000000,     1.963500000000000,     3.927000000000000 ] # c
points:
- symbol: Pd # 1
  coordinates: [  0.000000000000000,  0.000000000000000,  0.000000000000000 ]
  mass: 106.420000
- symbol: Pd # 2
  coordinates: [  0.500000000000000,  0.500000000000000,  0.500000000000000 ]
  mass: 106.420000