35
Lattice="9.2133 0.0 0.0 -0.881885 7.70485 0.0 -0.8749 0.45931 8.75766" Properties=species:S:1:pos:R:3:Z:I:1:forces:R:3 stress="-6.52782 0.10715 0.47413 0.10715 -7.84901 0.20238 0.47413 0.20238 -6.27412" energy=-112.35657705 pbc="T T T"
Pd       8.40006000       2.65118000       0.79084000       46      -0.32096000       0.69341100      -0.25523000 
Pd       0.11673000       3.82022000       3.24837000       46       0.00790900       0.18920300      -0.09032000 
Pd       0.79851000       5.09115000       5.75427000       46       0.61822600      -0.01026300       0.09035200 
Pd       1.74535000       6.38197000       8.31685000       46       0.72887900      -0.07095900      -0.71346900 
Pd       3.59933000       7.09953000       2.02325000       46       0.51452100       0.00016300      -0.10621700 
Pd       5.54363000       0.61171000       4.46729000       46      -0.27517600       0.12635800       0.11026900 
Pd       6.48626000       1.85613000       6.94312000       46      -0.32466000      -0.10030100      -0.00709700 
Ag       0.85237000       1.04290000       2.40414000       47       0.04135600       0.41291300       0.31629300 
Ag      -0.89765000       5.57425000       8.03214000       47      -0.22873300      -0.71990500       0.05115400 
Ag       0.01136000       2.73199000       7.10667000       47       0.16099600       0.34756900       0.39332000 
Ag       7.38093000       5.41646000       1.45014000       47       0.01905500      -0.08476300       0.01050900 
Ag       2.01257000       2.44978000       4.84079000       47      -0.65416700       0.10133700       0.08913100 
Ag       0.99347000       6.18119000       1.68206000       47      -0.60168100       0.07178800       0.50539800 
Ag       1.98039000       3.61522000       0.97075000       47      -0.82719000      -0.55326400      -0.31231000 
Ag      -0.91609000       6.42544000       4.10597000       47       0.24296600       0.16174600      -0.68484500 
Ag       2.78366000       3.70599000       7.33240000       47      -0.24338900       0.09963000       0.36387700 
Ag       1.78678000       7.38892000       4.18491000       47      -0.00132200       0.00433900      -0.12400200 
Ag       2.87864000       4.71164000       3.38095000       47      -0.28846900       0.21032200       0.62172400 
Ag      -0.10437000       7.78465000       6.62262000       47       0.72628100       0.05223200      -0.51309800 
Ag       4.59262000       4.44104000       1.25259000       47       0.57361900       0.26782400      -0.41461800 
Ag       3.49526000       0.88310000       6.56128000       47       0.53821400       0.27394300       0.43042800 
Ag       3.56399000       6.01745000       5.84213000       47       0.29741800      -0.13787200       0.39168100 
Ag       2.73400000       0.89276000       0.20279000       47      -0.07168000      -0.11464100      -0.13754100 
Ag       5.64336000       5.60660000       3.81727000       47      -0.53275500       0.34281600      -0.33642700 
Ag       5.45195000       1.73003000       0.39806000       47       0.28347300       0.38198900       0.01635200 
Ag       4.40634000       7.36109000       8.39777000       47       0.43876200      -0.60016700       0.07020600 
Ag       3.66086000       2.02397000       2.59292000       47       0.46318200      -0.08748300       0.53500800 
Ag       6.56135000       6.94416000       6.20276000       47      -1.02680900      -0.09248000       0.30923400 
Ag       6.66096000       3.07079000       2.97785000       47      -0.54836100      -0.15990100      -0.08901600 
Ag       7.21290000       0.37016000       2.26362000       47       0.08212300      -0.30751700      -0.23116700 
Ag       4.74458000       3.30891000       5.33739000       47      -0.40015400      -0.36621300      -0.69109000 
Ag       8.14520000       0.65107000       8.71537000       47       0.09330200      -0.95278500       0.12929600 
Ag       7.35615000       4.14979000       5.59919000       47       0.48728600       0.16730600      -0.36554900 
Ag       8.32306000       1.49261000       4.67586000       47       0.02847500       0.10573300       0.04024400 
Ag       5.57538000       4.49489000       7.70384000       47      -0.00053900       0.34789200       0.59752100 
32
Lattice="7.8967 0.0 0.0 0.0 7.8967 0.0 0.0 0.0 7.8967" Properties=species:S:1:pos:R:3:Z:I:1:forces:R:3 stress="-4.41341 3e-05 -4e-05 3e-05 -4.41347 -0.0 -4e-05 -0.0 -4.41347" energy=-166.92328903 pbc="T T T"
Pd       0.00000000       0.00000000       0.00000000       46      -0.00010000      -0.00029600       0.00024700 
Pd       0.00000000       0.00000000       3.94835000       46       0.00013000       0.00017000      -0.00016400 
Pd       0.00000000       1.97418000       1.97418000       46       0.00008000      -0.00024300       0.00029000 
Pd       0.00000000       1.97418000       5.92253000       46       0.00017500       0.00000300      -0.00038200 
Pd       0.00000000       3.94835000       0.00000000       46      -0.00004800       0.00037300      -0.00002400 
Pd       0.00000000       3.94835000       3.94835000       46       0.00018800      -0.00007400       0.00008800 
Pd       0.00000000       5.92253000       1.97418000       46      -0.00006800       0.00018400      -0.00016600 
Pd       0.00000000       5.92253000       5.92253000       46       0.00000700      -0.00011100       0.00010600 
Pd       1.97418000       0.00000000       1.97418000       46      -0.00006200       0.00031700       0.00021600 
Pd       1.97418000       0.00000000       5.92253000       46       0.00020800      -0.00016500      -0.00032700 
Pd       1.97418000       1.97418000       0.00000000       46       0.00005300      -0.00010800       0.00019200 
Pd       1.97418000       1.97418000       3.94835000       46       0.00028500      -0.00002100      -0.00010900 
Pd       1.97418000       3.94835000       1.97418000       46      -0.00000700      -0.00023200       0.00035600 
Pd       1.97418000       3.94835000       5.92253000       46       0.00026500       0.00022800      -0.00039500 
Pd       1.97418000       5.92253000       0.00000000       46      -0.00006000       0.00003300      -0.00028000 
Pd       1.97418000       5.92253000       3.94835000       46       0.00016900      -0.00007200       0.00037600 
Pd       3.94835000       0.00000000       0.00000000       46       0.00018100      -0.00015300      -0.00001200 
Pd       3.94835000       0.00000000       3.94835000       46      -0.00005600       0.00028200       0.00008200 
Pd       3.94835000       1.97418000       1.97418000       46      -0.00000400      -0.00019300       0.00049500 
Pd       3.94835000       1.97418000       5.92253000       46      -0.00007600       0.00006900      -0.00059000 
Pd       3.94835000       3.94835000       0.00000000       46       0.00013100       0.00024600      -0.00027600 
Pd       3.94835000       3.94835000       3.94835000       46      -0.00009800      -0.00020400       0.00033900 
Pd       3.94835000       5.92253000       1.97418000       46       0.00014700       0.00011900       0.00006100 
Pd       3.94835000       5.92253000       5.92253000       46       0.00007500      -0.00014900      -0.00011200 
Pd       5.92253000       0.00000000       1.97418000       46      -0.00002500       0.00017800      -0.00000700 
Pd       5.92253000       0.00000000       5.92253000       46      -0.00027900      -0.00031100      -0.00007600 
Pd       5.92253000       1.97418000       0.00000000       46      -0.00015900      -0.00017300       0.00024800 
Pd       5.92253000       1.97418000       3.94835000       46      -0.00036800      -0.00006300      -0.00018000 
Pd       5.92253000       3.94835000       1.97418000       46      -0.00009100      -0.00005500       0.00009800 
Pd       5.92253000       3.94835000       5.92253000       46      -0.00033900       0.00036400      -0.00016700 
Pd       5.92253000       5.92253000       0.00000000       46      -0.00000900       0.00007100      -0.00020800 
Pd       5.92253000       5.92253000       3.94835000       46      -0.00024100      -0.00001300       0.00028200 
60
Lattice="10.5622 0.0 0.0 0.0 9.62956 0.0 -0.406236 0.0 10.5544" Properties=species:S:1:pos:R:3:Z:I:1:forces:R:3 stress="-3.09644 2e-05 0.61993 2e-05 -3.84533 -2e-05 0.61993 -2e-05 -3.04937" energy=-162.9058006 pbc="T T T"
Ag       0.00000000       0.00000000       0.00000000       47      -0.00119500      -0.00000100       0.00099000 
Ag       8.53098000       7.22217000      10.08530000       47       0.00139100      -0.00000000      -0.00127500 
Ag       0.00000000       4.81478000       0.00000000       47      -0.00119500      -0.00000100       0.00098900 
Ag       8.53098000       2.40739000      10.08530000       47       0.00139100       0.00000100      -0.00127600 
Ag       0.40624000       0.00000000       7.73986000       47      -0.00109800      -0.00000000       0.00101400 
Ag       9.34346000       7.22217000       7.27078000       47       0.00114600       0.00000100      -0.00098400 
Ag       0.40624000       4.81478000       7.73986000       47      -0.00109700      -0.00000100       0.00101500 
Ag       9.34346000       2.40739000       7.27078000       47       0.00114700       0.00000000      -0.00098300 
Ag       1.21871000       0.00000000       4.92537000       47      -0.00134400       0.00000000       0.00115500 
Ag      10.15590000       7.22217000       4.45628000       47       0.00120300       0.00000000      -0.00095100 
Ag       1.21871000       4.81478000       4.92537000       47      -0.00134200      -0.00000100       0.00115500 
Ag      10.15590000       2.40739000       4.45628000       47       0.00120400      -0.00000000      -0.00095300 
Ag       2.03119000       0.00000000       2.11087000       47      -0.00117900      -0.00000100       0.00104600 
Ag       0.40624000       7.22217000       1.64179000       47       0.00124400       0.00000100      -0.00131600 
Ag       2.03119000       4.81478000       2.11087000       47      -0.00118100      -0.00000100       0.00104600 
Ag       0.40624000       2.40739000       1.64179000       47       0.00124400       0.00000100      -0.00131600 
Ag       2.43742000       0.00000000       9.85073000       47      -0.00098700      -0.00000100       0.00109400 
Ag       0.81248000       7.22217000       9.38165000       47       0.00101200       0.00000100      -0.00095900 
Ag       2.43742000       4.81478000       9.85073000       47      -0.00098700      -0.00000100       0.00109200 
Ag       0.81248000       2.40739000       9.38165000       47       0.00101200       0.00000100      -0.00095900 
Ag       3.24990000       0.00000000       7.03624000       47      -0.00125900      -0.00000100       0.00119000 
Ag       1.62495000       7.22217000       6.56715000       47       0.00092300       0.00000100      -0.00097800 
Ag       3.24990000       4.81478000       7.03624000       47      -0.00125900       0.00000000       0.00119100 
Ag       1.62495000       2.40739000       6.56715000       47       0.00092300       0.00000000      -0.00097800 
Ag       4.06237000       0.00000000       4.22174000       47      -0.00113900      -0.00000100       0.00110600 
Ag       2.43742000       7.22217000       3.75266000       47       0.00123300       0.00000100      -0.00124600 
Ag       4.06237000       4.81478000       4.22174000       47      -0.00114000      -0.00000000       0.00110700 
Ag       2.43742000       2.40739000       3.75266000       47       0.00123300       0.00000000      -0.00124600 
Ag       4.87485000       0.00000000       1.40725000       47      -0.00103100      -0.00000000       0.00086800 
Ag       3.24990000       7.22217000       0.93817000       47       0.00105200       0.00000200      -0.00116000 
Ag       4.87485000       4.81478000       1.40725000       47      -0.00103100      -0.00000100       0.00086900 
Ag       3.24990000       2.40739000       0.93817000       47       0.00105200       0.00000000      -0.00116000 
Ag       5.28108000       0.00000000       9.14711000       47      -0.00119600      -0.00000100       0.00130900 
Ag       3.65614000       7.22217000       8.67802000       47       0.00100300       0.00000000      -0.00085500 
Ag       5.28108000       4.81478000       9.14711000       47      -0.00119600      -0.00000000       0.00130700 
Ag       3.65614000       2.40739000       8.67802000       47       0.00100300       0.00000100      -0.00085500 
Ag       6.09356000       0.00000000       6.33261000       47      -0.00114200      -0.00000000       0.00111400 
Ag       4.46861000       7.22217000       5.86353000       47       0.00130800       0.00000000      -0.00126000 
Ag       6.09356000       4.81478000       6.33261000       47      -0.00114300      -0.00000100       0.00111400 
Ag       4.46861000       2.40739000       5.86353000       47       0.00130800       0.00000100      -0.00126000 
Ag       6.90603000       0.00000000       3.51812000       47      -0.00099700      -0.00000000       0.00096600 
Ag       5.28108000       7.22217000       3.04904000       47       0.00108900       0.00000000      -0.00105600 
Ag       6.90603000       4.81478000       3.51812000       47      -0.00099700      -0.00000000       0.00096600 
Ag       5.28108000       2.40739000       3.04904000       47       0.00109000       0.00000100      -0.00105800 
Ag       7.71851000       0.00000000       0.70362000       47      -0.00122700       0.00000000       0.00108700 
Ag       6.09356000       7.22217000       0.23454000       47       0.00097700       0.00000100      -0.00108200 
Ag       7.71851000       4.81478000       0.70362000       47      -0.00122600      -0.00000100       0.00108600 
Ag       6.09356000       2.40739000       0.23454000       47       0.00097800       0.00000100      -0.00108100 
Ag       8.12475000       0.00000000       8.44348000       47      -0.00107900      -0.00000000       0.00122300 
Ag       6.49980000       7.22217000       7.97440000       47       0.00130200       0.00000000      -0.00117200 
Ag       8.12475000       4.81478000       8.44348000       47      -0.00107900      -0.00000000       0.00122400 
Ag       6.49980000       2.40739000       7.97440000       47       0.00130300       0.00000000      -0.00117100 
Ag       8.93722000       0.00000000       5.62899000       47      -0.00095300      -0.00000100       0.00098400 
Ag       7.31227000       7.22217000       5.15991000       47       0.00105900       0.00000000      -0.00104500 
Ag       8.93722000       4.81478000       5.62899000       47      -0.00095400       0.00000100       0.00098500 
Ag       7.31227000       2.40739000       5.15991000       47       0.00105900       0.00000000      -0.00104500 
Ag       9.74969000       0.00000000       2.81449000       47      -0.00115900      -0.00000000       0.00120100 
Ag       8.12474000       7.22217000       2.34541000       47       0.00104400       0.00000100      -0.00100700 
Ag       9.74969000       4.81478000       2.81449000       47      -0.00115900      -0.00000000       0.00120000 
Ag       8.12474000       2.40739000       2.34541000       47       0.00104300      -0.00000000      -0.00100800 
36
Lattice="7.9361 0.0 0.0 -2e-06 8.61754 0.0 -2e-06 0.0 8.61754" Properties=species:S:1:pos:R:3:Z:I:1:forces:R:3 stress="-2.93411 0.0001 9e-05 0.0001 -3.97897 0.00019 9e-05 0.00019 -3.9796" energy=-149.35106569 pbc="T T T"
Pd       0.00000000       0.00000000       0.00000000       46       0.00001600       0.00021100      -0.00058700 
Pd       0.00000000       5.73721000       5.73721000       46      -0.00001700      -0.02509300      -0.02486200 
Pd       0.00000000       5.73721000       2.88032000       46       0.00001800      -0.02476400       0.02488500 
Pd       0.00000000       2.88032000       5.73721000       46       0.00003500       0.02529600      -0.02519700 
Pd      -0.00000000       2.88032000       2.88032000       46       0.00002000       0.02489200       0.02514700 
Pd       1.98402000       4.30877000       4.30877000       46      -0.00009900      -0.00016500       0.00032300 
Pd       1.98402000       1.42844000       1.42844000       46       0.00010100      -0.02495400      -0.02514000 
Pd       1.98402000       1.42844000       7.18909000       46       0.00008400      -0.02552700       0.02548100 
Pd       1.98402000       7.18909000       1.42844000       46       0.00008900       0.02495800      -0.02497800 
Pd       1.98402000       7.18909000       7.18909000       46       0.00009600       0.02542200       0.02521800 
Pd       3.96805000       0.00000000       0.00000000       46       0.00000400       0.00018900      -0.00058200 
Pd       3.96805000       5.73721000       5.73721000       46      -0.00004800      -0.02546700      -0.02527000 
Pd       3.96805000       5.73721000       2.88032000       46      -0.00003800      -0.02485500       0.02506700 
Pd       3.96805000       2.88032000       5.73721000       46      -0.00006900       0.02544800      -0.02523800 
Pd       3.96805000       2.88032000       2.88032000       46      -0.00001100       0.02488300       0.02510000 
Pd       5.95208000       4.30877000       4.30877000       46       0.00009000      -0.00016300       0.00032500 
Pd       5.95208000       1.42844000       1.42844000       46      -0.00010200      -0.02500000      -0.02512000 
Pd       5.95208000       1.42844000       7.18909000       46      -0.00009000      -0.02526700       0.02526300 
Pd       5.95208000       7.18909000       1.42844000       46      -0.00010300       0.02502900      -0.02502600 
Pd       5.95207000       7.18909000       7.18909000       46      -0.00005500       0.02529600       0.02517800 
Ag      -0.00000000       0.00000000       5.77601000       47      -0.00001000      -0.00014800       0.01886500 
Ag       0.00000000       0.00000000       2.84153000       47       0.00000400      -0.00010400      -0.01922500 
Ag      -0.00000000       5.77601000       0.00000000       47      -0.00000100       0.01910100       0.00020700 
Ag       0.00000000       2.84153000       0.00000000       47      -0.00000500      -0.01900200       0.00025300 
Ag       1.98402000       4.30877000       1.46724000       47       0.00005500       0.00004000       0.01952600 
Ag       1.98402000       4.30877000       7.15030000       47       0.00003900       0.00007500      -0.01915500 
Ag       1.98402000       1.46724000       4.30877000       47       0.00004400       0.01927400      -0.00027700 
Ag       1.98402000       7.15030000       4.30877000       47       0.00005300      -0.01943100      -0.00024000 
Ag       3.96805000       0.00000000       5.77601000       47      -0.00000500      -0.00012300       0.01886900 
Ag       3.96805000       0.00000000       2.84153000       47      -0.00000500      -0.00012000      -0.01920800 
Ag       3.96805000       5.77601000       0.00000000       47      -0.00001100       0.01910700       0.00025800 
Ag       3.96805000       2.84153000       0.00000000       47       0.00000300      -0.01897800       0.00025500 
Ag       5.95208000       4.30877000       1.46724000       47      -0.00005800       0.00004900       0.01954600 
Ag       5.95207000       4.30877000       7.15030000       47       0.00002100       0.00006900      -0.01914400 
Ag       5.95208000       1.46724000       4.30877000       47      -0.00004600       0.01926800      -0.00026900 
Ag       5.95207000       7.15030000       4.30877000       47       0.00000200      -0.01944600      -0.00024800 
