BEGIN_CFG
 Size
    35
 Supercell
         9.213300      0.000000      0.000000
        -0.881885      7.704850      0.000000
        -0.874900      0.459310      8.757660
 AtomData:  id type       cartes_x      cartes_y      cartes_z           fx          fy          fz
             1    0       8.400060      2.651180      0.790840    -0.320960    0.693411   -0.255230
             2    0       0.116730      3.820220      3.248370     0.007909    0.189203   -0.090320
             3    0       0.798510      5.091150      5.754270     0.618226   -0.010263    0.090352
             4    0       1.745350      6.381970      8.316850     0.728879   -0.070959   -0.713469
             5    0       3.599330      7.099530      2.023250     0.514521    0.000163   -0.106217
             6    0       5.543630      0.611710      4.467290    -0.275176    0.126358    0.110269
             7    0       6.486260      1.856130      6.943120    -0.324660   -0.100301   -0.007097
             8    1       0.852370      1.042900      2.404140     0.041356    0.412913    0.316293
             9    1      -0.897650      5.574250      8.032140    -0.228733   -0.719905    0.051154
            10    1       0.011360      2.731990      7.106670     0.160996    0.347569    0.393320
            11    1       7.380930      5.416460      1.450140     0.019055   -0.084763    0.010509
            12    1       2.012570      2.449780      4.840790    -0.654167    0.101337    0.089131
            13    1       0.993470      6.181190      1.682060    -0.601681    0.071788    0.505398
            14    1       1.980390      3.615220      0.970750    -0.827190   -0.553264   -0.312310
            15    1      -0.916090      6.425440      4.105970     0.242966    0.161746   -0.684845
            16    1       2.783660      3.705990      7.332400    -0.243389    0.099630    0.363877
            17    1       1.786780      7.388920      4.184910    -0.001322    0.004339   -0.124002
            18    1       2.878640      4.711640      3.380950    -0.288469    0.210322    0.621724
            19    1      -0.104370      7.784650      6.622620     0.726281    0.052232   -0.513098
            20    1       4.592620      4.441040      1.252590     0.573619    0.267824   -0.414618
            21    1       3.495260      0.883100      6.561280     0.538214    0.273943    0.430428
            22    1       3.563990      6.017450      5.842130     0.297418   -0.137872    0.391681
            23    1       2.734000      0.892760      0.202790    -0.071680   -0.114641   -0.137541
            24    1       5.643360      5.606600      3.817270    -0.532755    0.342816   -0.336427
            25    1       5.451950      1.730030      0.398060     0.283473    0.381989    0.016352
            26    1       4.406340      7.361090      8.397770     0.438762   -0.600167    0.070206
            27    1       3.660860      2.023970      2.592920     0.463182   -0.087483    0.535008
            28    1       6.561350      6.944160      6.202760    -1.026809   -0.092480    0.309234
            29    1       6.660960      3.070790      2.977850    -0.548361   -0.159901   -0.089016
            30    1       7.212900      0.370160      2.263620     0.082123   -0.307517   -0.231167
            31    1       4.744580      3.308910      5.337390    -0.400154   -0.366213   -0.691090
            32    1       8.145200      0.651070      8.715370     0.093302   -0.952785    0.129296
            33    1       7.356150      4.149790      5.599190     0.487286    0.167306   -0.365549
            34    1       8.323060      1.492610      4.675860     0.028475    0.105733    0.040244
            35    1       5.575380      4.494890      7.703840    -0.000539    0.347892    0.597521
 Energy
       -112.356577050000
 PlusStress:  xx          yy          zz          yz          xz          xy
        -6.52782    -7.84901    -6.27412     0.20238     0.47413     0.10715
 Feature   EFS_by	VASP
END_CFG

BEGIN_CFG
 Size
    32
 Supercell
         7.896700      0.000000      0.000000
         0.000000      7.896700      0.000000
         0.000000      0.000000      7.896700
 AtomData:  id type       cartes_x      cartes_y      cartes_z           fx          fy          fz
             1    0       0.000000      0.000000      0.000000    -0.000100   -0.000296    0.000247
             2    0       0.000000      0.000000      3.948350     0.000130    0.000170   -0.000164
             3    0       0.000000      1.974180      1.974180     0.000080   -0.000243    0.000290
             4    0       0.000000      1.974180      5.922530     0.000175    0.000003   -0.000382
             5    0       0.000000      3.948350      0.000000    -0.000048    0.000373   -0.000024
             6    0       0.000000      3.948350      3.948350     0.000188   -0.000074    0.000088
             7    0       0.000000      5.922530      1.974180    -0.000068    0.000184   -0.000166
             8    0       0.000000      5.922530      5.922530     0.000007   -0.000111    0.000106
             9    0       1.974180      0.000000      1.974180    -0.000062    0.000317    0.000216
            10    0       1.974180      0.000000      5.922530     0.000208   -0.000165   -0.000327
            11    0       1.974180      1.974180      0.000000     0.000053   -0.000108    0.000192
            12    0       1.974180      1.974180      3.948350     0.000285   -0.000021   -0.000109
            13    0       1.974180      3.948350      1.974180    -0.000007   -0.000232    0.000356
            14    0       1.974180      3.948350      5.922530     0.000265    0.000228   -0.000395
            15    0       1.974180      5.922530      0.000000    -0.000060    0.000033   -0.000280
            16    0       1.974180      5.922530      3.948350     0.000169   -0.000072    0.000376
            17    0       3.948350      0.000000      0.000000     0.000181   -0.000153   -0.000012
            18    0       3.948350      0.000000      3.948350    -0.000056    0.000282    0.000082
            19    0       3.948350      1.974180      1.974180    -0.000004   -0.000193    0.000495
            20    0       3.948350      1.974180      5.922530    -0.000076    0.000069   -0.000590
            21    0       3.948350      3.948350      0.000000     0.000131    0.000246   -0.000276
            22    0       3.948350      3.948350      3.948350    -0.000098   -0.000204    0.000339
            23    0       3.948350      5.922530      1.974180     0.000147    0.000119    0.000061
            24    0       3.948350      5.922530      5.922530     0.000075   -0.000149   -0.000112
            25    0       5.922530      0.000000      1.974180    -0.000025    0.000178   -0.000007
            26    0       5.922530      0.000000      5.922530    -0.000279   -0.000311   -0.000076
            27    0       5.922530      1.974180      0.000000    -0.000159   -0.000173    0.000248
            28    0       5.922530      1.974180      3.948350    -0.000368   -0.000063   -0.000180
            29    0       5.922530      3.948350      1.974180    -0.000091   -0.000055    0.000098
            30    0       5.922530      3.948350      5.922530    -0.000339    0.000364   -0.000167
            31    0       5.922530      5.922530      0.000000    -0.000009    0.000071   -0.000208
            32    0       5.922530      5.922530      3.948350    -0.000241   -0.000013    0.000282
 Energy
       -166.923289030000
 PlusStress:  xx          yy          zz          yz          xz          xy
        -4.41341    -4.41347    -4.41347    -0.00000    -0.00004     0.00003
 Feature   EFS_by	VASP
END_CFG

BEGIN_CFG
 Size
    60
 Supercell
        10.562200      0.000000      0.000000
         0.000000      9.629560      0.000000
        -0.406236      0.000000     10.554400
 AtomData:  id type       cartes_x      cartes_y      cartes_z           fx          fy          fz
             1    1       0.000000      0.000000      0.000000    -0.001195   -0.000001    0.000990
             2    1       8.530980      7.222170     10.085300     0.001391   -0.000000   -0.001275
             3    1       0.000000      4.814780      0.000000    -0.001195   -0.000001    0.000989
             4    1       8.530980      2.407390     10.085300     0.001391    0.000001   -0.001276
             5    1       0.406240      0.000000      7.739860    -0.001098   -0.000000    0.001014
             6    1       9.343460      7.222170      7.270780     0.001146    0.000001   -0.000984
             7    1       0.406240      4.814780      7.739860    -0.001097   -0.000001    0.001015
             8    1       9.343460      2.407390      7.270780     0.001147    0.000000   -0.000983
             9    1       1.218710      0.000000      4.925370    -0.001344    0.000000    0.001155
            10    1      10.155900      7.222170      4.456280     0.001203    0.000000   -0.000951
            11    1       1.218710      4.814780      4.925370    -0.001342   -0.000001    0.001155
            12    1      10.155900      2.407390      4.456280     0.001204   -0.000000   -0.000953
            13    1       2.031190      0.000000      2.110870    -0.001179   -0.000001    0.001046
            14    1       0.406240      7.222170      1.641790     0.001244    0.000001   -0.001316
            15    1       2.031190      4.814780      2.110870    -0.001181   -0.000001    0.001046
            16    1       0.406240      2.407390      1.641790     0.001244    0.000001   -0.001316
            17    1       2.437420      0.000000      9.850730    -0.000987   -0.000001    0.001094
            18    1       0.812480      7.222170      9.381650     0.001012    0.000001   -0.000959
            19    1       2.437420      4.814780      9.850730    -0.000987   -0.000001    0.001092
            20    1       0.812480      2.407390      9.381650     0.001012    0.000001   -0.000959
            21    1       3.249900      0.000000      7.036240    -0.001259   -0.000001    0.001190
            22    1       1.624950      7.222170      6.567150     0.000923    0.000001   -0.000978
            23    1       3.249900      4.814780      7.036240    -0.001259    0.000000    0.001191
            24    1       1.624950      2.407390      6.567150     0.000923    0.000000   -0.000978
            25    1       4.062370      0.000000      4.221740    -0.001139   -0.000001    0.001106
            26    1       2.437420      7.222170      3.752660     0.001233    0.000001   -0.001246
            27    1       4.062370      4.814780      4.221740    -0.001140   -0.000000    0.001107
            28    1       2.437420      2.407390      3.752660     0.001233    0.000000   -0.001246
            29    1       4.874850      0.000000      1.407250    -0.001031   -0.000000    0.000868
            30    1       3.249900      7.222170      0.938170     0.001052    0.000002   -0.001160
            31    1       4.874850      4.814780      1.407250    -0.001031   -0.000001    0.000869
            32    1       3.249900      2.407390      0.938170     0.001052    0.000000   -0.001160
            33    1       5.281080      0.000000      9.147110    -0.001196   -0.000001    0.001309
            34    1       3.656140      7.222170      8.678020     0.001003    0.000000   -0.000855
            35    1       5.281080      4.814780      9.147110    -0.001196   -0.000000    0.001307
            36    1       3.656140      2.407390      8.678020     0.001003    0.000001   -0.000855
            37    1       6.093560      0.000000      6.332610    -0.001142   -0.000000    0.001114
            38    1       4.468610      7.222170      5.863530     0.001308    0.000000   -0.001260
            39    1       6.093560      4.814780      6.332610    -0.001143   -0.000001    0.001114
            40    1       4.468610      2.407390      5.863530     0.001308    0.000001   -0.001260
            41    1       6.906030      0.000000      3.518120    -0.000997   -0.000000    0.000966
            42    1       5.281080      7.222170      3.049040     0.001089    0.000000   -0.001056
            43    1       6.906030      4.814780      3.518120    -0.000997   -0.000000    0.000966
            44    1       5.281080      2.407390      3.049040     0.001090    0.000001   -0.001058
            45    1       7.718510      0.000000      0.703620    -0.001227    0.000000    0.001087
            46    1       6.093560      7.222170      0.234540     0.000977    0.000001   -0.001082
            47    1       7.718510      4.814780      0.703620    -0.001226   -0.000001    0.001086
            48    1       6.093560      2.407390      0.234540     0.000978    0.000001   -0.001081
            49    1       8.124750      0.000000      8.443480    -0.001079   -0.000000    0.001223
            50    1       6.499800      7.222170      7.974400     0.001302    0.000000   -0.001172
            51    1       8.124750      4.814780      8.443480    -0.001079   -0.000000    0.001224
            52    1       6.499800      2.407390      7.974400     0.001303    0.000000   -0.001171
            53    1       8.937220      0.000000      5.628990    -0.000953   -0.000001    0.000984
            54    1       7.312270      7.222170      5.159910     0.001059    0.000000   -0.001045
            55    1       8.937220      4.814780      5.628990    -0.000954    0.000001    0.000985
            56    1       7.312270      2.407390      5.159910     0.001059    0.000000   -0.001045
            57    1       9.749690      0.000000      2.814490    -0.001159   -0.000000    0.001201
            58    1       8.124740      7.222170      2.345410     0.001044    0.000001   -0.001007
            59    1       9.749690      4.814780      2.814490    -0.001159   -0.000000    0.001200
            60    1       8.124740      2.407390      2.345410     0.001043   -0.000000   -0.001008
 Energy
       -162.905800600000
 PlusStress:  xx          yy          zz          yz          xz          xy
        -3.09644    -3.84533    -3.04937    -0.00002     0.61993     0.00002
 Feature   EFS_by	VASP
END_CFG

BEGIN_CFG
 Size
    36
 Supercell
         7.936100      0.000000      0.000000
        -0.000002      8.617540      0.000000
        -0.000002      0.000000      8.617540
 AtomData:  id type       cartes_x      cartes_y      cartes_z           fx          fy          fz
             1    0       0.000000      0.000000      0.000000     0.000016    0.000211   -0.000587
             2    0       0.000000      5.737210      5.737210    -0.000017   -0.025093   -0.024862
             3    0       0.000000      5.737210      2.880320     0.000018   -0.024764    0.024885
             4    0       0.000000      2.880320      5.737210     0.000035    0.025296   -0.025197
             5    0      -0.000000      2.880320      2.880320     0.000020    0.024892    0.025147
             6    0       1.984020      4.308770      4.308770    -0.000099   -0.000165    0.000323
             7    0       1.984020      1.428440      1.428440     0.000101   -0.024954   -0.025140
             8    0       1.984020      1.428440      7.189090     0.000084   -0.025527    0.025481
             9    0       1.984020      7.189090      1.428440     0.000089    0.024958   -0.024978
            10    0       1.984020      7.189090      7.189090     0.000096    0.025422    0.025218
            11    0       3.968050      0.000000      0.000000     0.000004    0.000189   -0.000582
            12    0       3.968050      5.737210      5.737210    -0.000048   -0.025467   -0.025270
            13    0       3.968050      5.737210      2.880320    -0.000038   -0.024855    0.025067
            14    0       3.968050      2.880320      5.737210    -0.000069    0.025448   -0.025238
            15    0       3.968050      2.880320      2.880320    -0.000011    0.024883    0.025100
            16    0       5.952080      4.308770      4.308770     0.000090   -0.000163    0.000325
            17    0       5.952080      1.428440      1.428440    -0.000102   -0.025000   -0.025120
            18    0       5.952080      1.428440      7.189090    -0.000090   -0.025267    0.025263
            19    0       5.952080      7.189090      1.428440    -0.000103    0.025029   -0.025026
            20    0       5.952070      7.189090      7.189090    -0.000055    0.025296    0.025178
            21    1      -0.000000      0.000000      5.776010    -0.000010   -0.000148    0.018865
            22    1       0.000000      0.000000      2.841530     0.000004   -0.000104   -0.019225
            23    1      -0.000000      5.776010      0.000000    -0.000001    0.019101    0.000207
            24    1       0.000000      2.841530      0.000000    -0.000005   -0.019002    0.000253
            25    1       1.984020      4.308770      1.467240     0.000055    0.000040    0.019526
            26    1       1.984020      4.308770      7.150300     0.000039    0.000075   -0.019155
            27    1       1.984020      1.467240      4.308770     0.000044    0.019274   -0.000277
            28    1       1.984020      7.150300      4.308770     0.000053   -0.019431   -0.000240
            29    1       3.968050      0.000000      5.776010    -0.000005   -0.000123    0.018869
            30    1       3.968050      0.000000      2.841530    -0.000005   -0.000120   -0.019208
            31    1       3.968050      5.776010      0.000000    -0.000011    0.019107    0.000258
            32    1       3.968050      2.841530      0.000000     0.000003   -0.018978    0.000255
            33    1       5.952080      4.308770      1.467240    -0.000058    0.000049    0.019546
            34    1       5.952070      4.308770      7.150300     0.000021    0.000069   -0.019144
            35    1       5.952080      1.467240      4.308770    -0.000046    0.019268   -0.000269
            36    1       5.952070      7.150300      4.308770     0.000002   -0.019446   -0.000248
 Energy
       -149.351065690000
 PlusStress:  xx          yy          zz          yz          xz          xy
        -2.93411    -3.97897    -3.97960     0.00019     0.00009     0.00010
 Feature   EFS_by	VASP
END_CFG
