32   
1    

1    
  0.0100000000000000   0.0000000000000000   0.0000000000000000
  -0.0872555200    0.0000000200   -0.0000001000
  -0.0009992000   -0.0000148600   -0.0000148500
  -0.0004126100   -0.0000001500    0.0000000600
  -0.0009992200    0.0000148400    0.0000148400
   0.0114571800    0.0000898800    0.0131209000
   0.0000445200    0.0004735800    0.0000418800
   0.0000455000    0.0000135200   -0.0005077300
   0.0114566800   -0.0130981700   -0.0000480100
  -0.0026382500    0.0000002800   -0.0000000400
   0.0008395800    0.0000079500   -0.0000086800
  -0.0022927500   -0.0000000400   -0.0000000600
   0.0008395300   -0.0000076600    0.0000084200
   0.0111174300    0.0000943800    0.0126676600
   0.0111173200   -0.0126468200   -0.0000529000
   0.0000540300    0.0000150100   -0.0004943900
   0.0000534200    0.0004636600    0.0000404400
   0.0114566900    0.0130981000    0.0000481600
   0.0000457300   -0.0000136700    0.0005077600
   0.0000442800   -0.0004738100   -0.0000418500
   0.0114574100   -0.0000897800   -0.0131207800
   0.0008895200    0.0000072400    0.0000077600
   0.0005451100   -0.0000000800   -0.0000000400
   0.0008895400   -0.0000073300   -0.0000076700
   0.0019485200    0.0000001100   -0.0000000000
   0.0000534000   -0.0004636700   -0.0000405500
   0.0000538900   -0.0000148200    0.0004943500
   0.0111173700    0.0126469800    0.0000531300
   0.0111174800   -0.0000944500   -0.0126676500
  -0.0010590100   -0.0000126400    0.0000143300
  -0.0000215700   -0.0000000800    0.0000000900
  -0.0010591100    0.0000126000   -0.0000145500
   0.0000930900   -0.0000000900    0.0000000800
