16   
1    

1    
  0.0081649658092773   0.0040824829046386   0.0040824829046386
  -0.0723228300   -0.0360600300   -0.0355312500
  -0.0003944800    0.0098686900    0.0099280700
  -0.0024739100   -0.0020606800   -0.0019666700
  -0.0003106600    0.0096500300    0.0097128900
   0.0146295500   -0.0001489400    0.0150426700
   0.0003767500    0.0005103400    0.0010849900
   0.0140926000   -0.0000853200    0.0144508900
   0.0081969900   -0.0115562100   -0.0012051300
   0.0145244300    0.0151460200   -0.0002923500
   0.0001536900    0.0009035800    0.0003212600
   0.0139892800    0.0145568800   -0.0002245300
   0.0078126900   -0.0014043700   -0.0116882200
   0.0010975800    0.0005730600    0.0006928600
   0.0010053400    0.0007566100    0.0006111400
  -0.0014135000   -0.0014239700   -0.0015734600
   0.0010364800    0.0007743000    0.0006368500
