2    
1    

1    
  0.0081649658092773   0.0040824829046386   0.0040824829046386
  -0.0593082200   -0.0502639500   -0.0497697500
   0.0593082200    0.0502639500    0.0497697500
