4    
1    

1    
  0.0100000000000000   0.0000000000000000   0.0000000000000000
  -0.0891307900    0.0010045800   -0.0009903100
  -0.0014737200   -0.0005443600    0.0003592700
   0.0455046000   -0.0002497400    0.0001237200
   0.0450999000   -0.0002104800    0.0005073200
