27   
1    

1    
  0.0000000000000000   0.0070710678118655   0.0070710678118655
   0.0000605000   -0.0619621200   -0.0615319400
  -0.0001707100    0.0168661900    0.0167922300
  -0.0001638300    0.0160496500    0.0159753300
   0.0090584300   -0.0010222700    0.0075686200
   0.0002417700    0.0006226000    0.0008221300
  -0.0089461300    0.0075175500   -0.0011108100
   0.0088471700   -0.0009717700    0.0074175800
  -0.0091592300    0.0076754100   -0.0011550600
   0.0002041300    0.0006266800    0.0008216700
   0.0089702200    0.0077278300   -0.0007958600
  -0.0000262700    0.0007673900    0.0006947900
  -0.0087526700   -0.0009344000    0.0072613200
   0.0003718700    0.0001509400    0.0002579000
  -0.0004795500    0.0001110100    0.0002852500
   0.0000351700    0.0003078600   -0.0000241400
   0.0000634500   -0.0011475300   -0.0011508200
   0.0000164500    0.0004961900    0.0000422000
   0.0000404900   -0.0000835200    0.0005393900
   0.0087572400    0.0075677800   -0.0007478600
  -0.0089591900   -0.0009818600    0.0074142200
  -0.0000606500    0.0007676900    0.0006954700
   0.0000640200   -0.0011433700   -0.0011600500
   0.0000428600   -0.0000814900    0.0005319300
   0.0000143400    0.0004992800    0.0000383500
   0.0003676700    0.0001426300    0.0002478200
   0.0000454600    0.0003062900   -0.0000248100
  -0.0004830100    0.0001253600    0.0002951600
