 vasp.5.3.3 18Dez12 (build Jun 21 2016 14:15:03) complex                        
  
 executed on             LinuxIFC date 2017.10.10  16:16:28
 serial version


--------------------------------------------------------------------------------------------------------


 INCAR:
 POTCAR:    PAW_PBE Pd_pv 28Jan2005               
 POTCAR:    PAW_PBE Pd_pv 28Jan2005               
   VRHFIN =Pd: 4p5s4d                                                           
   LEXCH  = PE                                                                  
   EATOM  =  2621.5550 eV,  192.6789 Ry                                         
                                                                                
   TITEL  = PAW_PBE Pd_pv 28Jan2005                                             
   LULTRA =        F    use ultrasoft PP ?                                      
   IUNSCR =        1    unscreen: 0-lin 1-nonlin 2-no                           
   RPACOR =    2.250    partial core radius                                     
   POMASS =  106.420; ZVAL   =   16.000    mass and valenz                      
   RCORE  =    2.400    outmost cutoff radius                                   
   RWIGS  =    2.300; RWIGS  =    1.217    wigner-seitz radius (au A)           
   ENMAX  =  250.925; ENMIN  =  188.194 eV                                      
   ICORE  =        3    local potential                                         
   LCOR   =        T    correct aug charges                                     
   LPAW   =        T    paw PP                                                  
   EAUG   =  473.067                                                            
   DEXC   =    0.000                                                            
   RMAX   =    2.449    core radius for proj-oper                               
   RAUG   =    1.300    factor for augmentation sphere                          
   RDEP   =    2.405    radius for radial grids                                 
   RDEPT  =    1.966    core radius for aug-charge                              
                                                                                
   Atomic configuration                                                         
   11 entries                                                                   
     n  l   j            E        occ.                                          
     1  0  0.50    -24164.6632   2.0000                                         
     2  0  0.50     -3530.9218   2.0000                                         
     2  1  1.50     -3165.6822   6.0000                                         
     3  0  0.50      -639.4578   2.0000                                         
     3  1  1.50      -519.4532   6.0000                                         
     3  2  2.50      -328.9758  10.0000                                         
     4  0  0.50       -88.7014   2.0000                                         
     4  1  1.50       -54.4541   6.0000                                         
     4  2  2.50        -6.6878   9.0000                                         
     5  0  0.50        -4.3543   1.0000                                         
     4  3  2.50        -1.3606   0.0000                                         
   Description                                                                  
     l       E           TYP  RCUT    TYP  RCUT                                 
     1    -54.4540524     23  2.100                                             
     1      4.0817478     23  2.100                                             
     2     -6.6878326     23  2.400                                             
     2     -4.0817478     23  2.400                                             
     0     -4.3542962     23  2.400                                             
     0     13.6058260     23  2.400                                             
     3     -5.4423304     23  2.400                                             
  local pseudopotential read in
  partial core-charges read in
  partial kinetic energy density read in
  atomic valenz-charges read in
  non local Contribution for L=           1  read in
    real space projection operators read in
  non local Contribution for L=           1  read in
    real space projection operators read in
  non local Contribution for L=           2  read in
    real space projection operators read in
  non local Contribution for L=           2  read in
    real space projection operators read in
  non local Contribution for L=           0  read in
    real space projection operators read in
  non local Contribution for L=           0  read in
    real space projection operators read in
    PAW grid and wavefunctions read in
 
   number of l-projection  operators is LMAX  =           6
   number of lm-projection operators is LMMAX =          18
 
  PAW_PBE Pd_pv 28Jan2005               :
 energy of atom  1       EATOM=-2621.5550
 kinetic energy error for atom=    0.0092 (will be added to EATOM!!)
 
 
 POSCAR: Pd                                      
  positions in cartesian coordinates
  No initial velocities read in
 exchange correlation table for  LEXCH =        8
   RHO(1)=    0.500       N(1)  =     2000
   RHO(2)=  100.500       N(2)  =     4000
 


--------------------------------------------------------------------------------------------------------


 ion  position               nearest neighbor table
   1  0.003  0.000  0.000-   3 2.77   4 2.77   3 2.77   4 2.77   2 2.78   2 2.78   2 2.78   2 2.78
                             3 2.78   4 2.78   3 2.78   4 2.78
   2  0.000  0.500  0.500-   3 2.78   4 2.78   4 2.78   3 2.78   3 2.78   4 2.78   4 2.78   3 2.78
                             1 2.78   1 2.78   1 2.78   1 2.78
   3  0.500  0.000  0.500-   1 2.77   1 2.77   4 2.78   2 2.78   4 2.78   2 2.78   4 2.78   4 2.78
                             2 2.78   2 2.78   1 2.78   1 2.78
   4  0.500  0.500  0.000-   1 2.77   1 2.77   3 2.78   2 2.78   3 2.78   2 2.78   3 2.78   3 2.78
                             2 2.78   2 2.78   1 2.78   1 2.78
 

IMPORTANT INFORMATION: All symmetrisations will be switched off!
NOSYMM: (Re-)initialisation of all symmetry stuff for point group C_1.

 
 
 KPOINTS: Server version 2017.05.18. K-point grid 
  k-points in reciprocal lattice
Space group operators:
 irot       det(A)        alpha          n_x          n_y          n_z        tau_x        tau_y        tau_z
    1     1.000000     0.000000     1.000000     0.000000     0.000000     0.000000     0.000000     0.000000


--------------------------------------------------------------------------------------------------------




 Dimension of arrays:
   k-points           NKPTS =    170   k-points in BZ     NKDIM =    170   number of bands    NBANDS=     38
   number of dos      NEDOS =    301   number of ions     NIONS =      4
   non local maximal  LDIM  =      6   non local SUM 2l+1 LMDIM =     18
   total plane-waves  NPLWV =  27000
   max r-space proj   IRMAX =      1   max aug-charges    IRDMAX= 142975
   dimension x,y,z NGX =    30 NGY =   30 NGZ =   30
   dimension x,y,z NGXF=    60 NGYF=   60 NGZF=   60
   support grid    NGXF=   120 NGYF=  120 NGZF=  120
   ions per type =               4
 NGX,Y,Z   is equivalent  to a cutoff of  12.70, 12.70, 12.70 a.u.
 NGXF,Y,Z  is equivalent  to a cutoff of  25.40, 25.40, 25.40 a.u.


 I would recommend the setting:
   dimension x,y,z NGX =    29 NGY =   29 NGZ =   29
 SYSTEM =  unknown system                          
 POSCAR =  Pd                                      

 Startparameter for this run:
   NWRITE =      2    write-flag & timer
   PREC   = a         normal or accurate (medium, high low for compatibility)
   ISTART =      0    job   : 0-new  1-cont  2-samecut
   ICHARG =      2    charge: 1-file 2-atom 10-const
   ISPIN  =      1    spin polarized calculation?
   LNONCOLLINEAR =      F non collinear calculations
   LSORBIT =      F    spin-orbit coupling
   INIWAV =      1    electr: 0-lowe 1-rand  2-diag
   LASPH  =      F    aspherical Exc in radial PAW
   METAGGA=      F    non-selfconsistent MetaGGA calc.

 Electronic Relaxation 1
   ENCUT  =  500.0 eV  36.75 Ry    6.06 a.u.   7.16  7.16  7.16*2*pi/ulx,y,z
   ENINI  =  500.0     initial cutoff
   ENAUG  =  473.1 eV  augmentation charge cutoff
   NELM   =     60;   NELMIN=  2; NELMDL= -5     # of ELM steps 
   EDIFF  = 0.1E-07   stopping-criterion for ELM
   LREAL  =      F    real-space projection
   NLSPLINE    = F    spline interpolate recip. space projectors
   LCOMPAT=      F    compatible to vasp.4.4
   GGA_COMPAT  = T    GGA compatible to vasp.4.4-vasp.4.6
   LMAXPAW     = -100 max onsite density
   LMAXMIX     =    2 max onsite mixed and CHGCAR
   VOSKOWN=      0    Vosko Wilk Nusair interpolation
   ROPT   =    0.00000
 Ionic relaxation
   EDIFFG = 0.1E-06   stopping-criterion for IOM
   NSW    =      0    number of steps for IOM
   NBLOCK =      1;   KBLOCK =      1    inner block; outer block 
   IBRION =     -1    ionic relax: 0-MD 1-quasi-New 2-CG
   NFREE  =      0    steps in history (QN), initial steepest desc. (CG)
   ISIF   =      2    stress and relaxation
   IWAVPR =      0    prediction:  0-non 1-charg 2-wave 3-comb
   ISYM   =      0    0-nonsym 1-usesym 2-fastsym
   LCORR  =      T    Harris-Foulkes like correction to forces

   POTIM  = 0.5000    time-step for ionic-motion
   TEIN   =    0.0    initial temperature
   TEBEG  =    0.0;   TEEND  =   0.0 temperature during run
   SMASS  =  -3.00    Nose mass-parameter (am)
   estimated Nose-frequenzy (Omega)   =  0.10E-29 period in steps =****** mass=  -0.352E-27a.u.
   SCALEE = 1.0000    scale energy and forces
   NPACO  =    256;   APACO  = 16.0  distance and # of slots for P.C.
   PSTRESS=    0.0 pullay stress

  Mass of Ions in am
   POMASS = 106.42
  Ionic Valenz
   ZVAL   =  16.00
  Atomic Wigner-Seitz radii
   RWIGS  =  -1.00
  virtual crystal weights 
   VCA    =   1.00
   NELECT =      64.0000    total number of electrons
   NUPDOWN=      -1.0000    fix difference up-down

 DOS related values:
   EMIN   =  10.00;   EMAX   =-10.00  energy-range for DOS
   EFERMI =   0.00
   ISMEAR =     0;   SIGMA  =   0.10  broadening in eV -4-tet -1-fermi 0-gaus

 Electronic relaxation 2 (details)
   IALGO  =     38    algorithm
   LDIAG  =      T    sub-space diagonalisation (order eigenvalues)
   LSUBROT=      T    optimize rotation matrix (better conditioning)
   TURBO    =      0    0=normal 1=particle mesh
   IRESTART =      0    0=no restart 2=restart with 2 vectors
   NREBOOT  =      0    no. of reboots
   NMIN     =      0    reboot dimension
   EREF     =   0.00    reference energy to select bands
   IMIX   =      4    mixing-type and parameters
     AMIX     =   0.40;   BMIX     =  1.00
     AMIX_MAG =   1.60;   BMIX_MAG =  1.00
     AMIN     =   0.10
     WC   =   100.;   INIMIX=   1;  MIXPRE=   1;  MAXMIX= -45

 Intra band minimization:
   WEIMIN = 0.0000     energy-eigenvalue tresh-hold
   EBREAK =  0.66E-10  absolut break condition
   DEPER  =   0.30     relativ break condition  

   TIME   =   0.40     timestep for ELM

  volume/ion in A,a.u.               =      15.14       102.17
  Fermi-wavevector in a.u.,A,eV,Ry     =   1.667531  3.151177 37.833172  2.780660
  Thomas-Fermi vector in A             =   2.753537
 
 Write flags
   LWAVE  =      F    write WAVECAR
   LCHARG =      T    write CHGCAR
   LVTOT  =      F    write LOCPOT, total local potential
   LVHAR  =      F    write LOCPOT, Hartree potential only
   LELF   =      F    write electronic localiz. function (ELF)
   LORBIT =      0    0 simple, 1 ext, 2 COOP (PROOUT)


 Dipole corrections
   LMONO  =      F    monopole corrections only (constant potential shift)
   LDIPOL =      F    correct potential (dipole corrections)
   IDIPOL =      0    1-x, 2-y, 3-z, 4-all directions 
   EPSILON=  1.0000000 bulk dielectric constant

 Exchange correlation treatment:
   GGA     =    --    GGA type
   LEXCH   =     8    internal setting for exchange type
   VOSKOWN=      0    Vosko Wilk Nusair interpolation
   LHFCALC =     F    Hartree Fock is set to
   LHFONE  =     F    Hartree Fock one center treatment
   AEXX    =    0.0000 exact exchange contribution

 Linear response parameters
   LEPSILON=     F    determine dielectric tensor
   LRPA    =     F    only Hartree local field effects (RPA)
   LNABLA  =     F    use nabla operator in PAW spheres
   LVEL    =     F    velocity operator in full k-point grid
   LINTERFAST=   F  fast interpolation
   KINTER  =     0    interpolate to denser k-point grid
   CSHIFT  =0.1000    complex shift for real part using Kramers Kronig
   OMEGAMAX=  -1.0    maximum frequency
   DEG_THRESHOLD= 0.2000000E-02 threshold for treating states as degnerate
   RTIME   =    0.100 relaxation time in fs

 Orbital magnetization related:
   ORBITALMAG=     F  switch on orbital magnetization
   LCHIMAG   =     F  perturbation theory with respect to B field
   DQ        =  0.001000  dq finite difference perturbation B field



--------------------------------------------------------------------------------------------------------


 Static calculation
 charge density and potential will be updated during run
 non-spin polarized calculation
 Variant of blocked Davidson
 Davidson routine will perform the subspace rotation
 perform sub-space diagonalisation
    after iterative eigenvector-optimisation
 modified Broyden-mixing scheme, WC =      100.0
 initial mixing is a Kerker type mixing with AMIX =  0.4000 and BMIX =      1.0000
 Hartree-type preconditioning will be used
 using additional bands            6
 reciprocal scheme for non local part
 use partial core corrections
 calculate Harris-corrections to forces 
   (improved forces if not selfconsistent)
 use gradient corrections 
 use of overlap-Matrix (Vanderbilt PP)
 Gauss-broadening in eV      SIGMA  =   0.10


--------------------------------------------------------------------------------------------------------


  energy-cutoff  :      500.00
  volume of cell :       60.56
      direct lattice vectors                 reciprocal lattice vectors
     3.927000000  0.000000000  0.000000000     0.254647313  0.000000000  0.000000000
     0.000000000  3.927000000  0.000000000     0.000000000  0.254647313  0.000000000
     0.000000000  0.000000000  3.927000000     0.000000000  0.000000000  0.254647313

  length of vectors
     3.927000000  3.927000000  3.927000000     0.254647313  0.254647313  0.254647313


 
 k-points in units of 2pi/SCALE and weight: Server version 2017.05.18. K-point grid 
   0.01273237  0.02246888  0.02621369       0.006
   0.03819710  0.02246888  0.15353735       0.006
   0.06366183  0.02246888  0.02621369       0.006
   0.08912656  0.02246888  0.15353735       0.006
   0.11459129  0.02246888  0.02621369       0.006
   0.14005602  0.02246888  0.15353735       0.006
   0.16552075  0.02246888  0.02621369       0.006
   0.19098549  0.02246888  0.15353735       0.006
   0.21645022  0.02246888  0.02621369       0.006
   0.24191495  0.02246888  0.15353735       0.006
   0.01273237  0.02995851  0.18349586       0.006
   0.03819710  0.02995851  0.05617220       0.006
   0.06366183  0.02995851  0.18349586       0.006
   0.08912656  0.02995851  0.05617220       0.006
   0.11459129  0.02995851  0.18349586       0.006
   0.14005602  0.02995851  0.05617220       0.006
   0.16552075  0.02995851  0.18349586       0.006
   0.19098549  0.02995851  0.05617220       0.006
   0.21645022  0.02995851  0.18349586       0.006
   0.24191495  0.02995851  0.05617220       0.006
   0.01273237  0.03744813  0.08613071       0.006
   0.03819710  0.03744813  0.21345437       0.006
   0.06366183  0.03744813  0.08613071       0.006
   0.08912656  0.03744813  0.21345437       0.006
   0.11459129  0.03744813  0.08613071       0.006
   0.14005602  0.03744813  0.21345437       0.006
   0.16552075  0.03744813  0.08613071       0.006
   0.19098549  0.03744813  0.21345437       0.006
   0.21645022  0.03744813  0.08613071       0.006
   0.24191495  0.03744813  0.21345437       0.006
   0.01273237  0.04493776  0.24341287       0.006
   0.03819710  0.04493776  0.11608922       0.006
   0.06366183  0.04493776  0.24341287       0.006
   0.08912656  0.04493776  0.11608922       0.006
   0.11459129  0.04493776  0.24341287       0.006
   0.14005602  0.04493776  0.11608922       0.006
   0.16552075  0.04493776  0.24341287       0.006
   0.19098549  0.04493776  0.11608922       0.006
   0.21645022  0.04493776  0.24341287       0.006
   0.24191495  0.04493776  0.11608922       0.006
   0.01273237  0.05242739  0.14604772       0.006
   0.03819710  0.05242739  0.01872407       0.006
   0.06366183  0.05242739  0.14604772       0.006
   0.08912656  0.05242739  0.01872407       0.006
   0.11459129  0.05242739  0.14604772       0.006
   0.14005602  0.05242739  0.01872407       0.006
   0.16552075  0.05242739  0.14604772       0.006
   0.19098549  0.05242739  0.01872407       0.006
   0.21645022  0.05242739  0.14604772       0.006
   0.24191495  0.05242739  0.01872407       0.006
   0.01273237  0.05991701  0.04868257       0.006
   0.03819710  0.05991701  0.17600623       0.006
   0.06366183  0.05991701  0.04868257       0.006
   0.08912656  0.05991701  0.17600623       0.006
   0.11459129  0.05991701  0.04868257       0.006
   0.14005602  0.05991701  0.17600623       0.006
   0.16552075  0.05991701  0.04868257       0.006
   0.19098549  0.05991701  0.17600623       0.006
   0.21645022  0.05991701  0.04868257       0.006
   0.24191495  0.05991701  0.17600623       0.006
   0.01273237  0.06740664  0.20596474       0.006
   0.03819710  0.06740664  0.07864108       0.006
   0.06366183  0.06740664  0.20596474       0.006
   0.08912656  0.06740664  0.07864108       0.006
   0.11459129  0.06740664  0.20596474       0.006
   0.14005602  0.06740664  0.07864108       0.006
   0.16552075  0.06740664  0.20596474       0.006
   0.19098549  0.06740664  0.07864108       0.006
   0.21645022  0.06740664  0.20596474       0.006
   0.24191495  0.06740664  0.07864108       0.006
   0.01273237  0.07489627  0.10859959       0.006
   0.03819710  0.07489627  0.23592325       0.006
   0.06366183  0.07489627  0.10859959       0.006
   0.08912656  0.07489627  0.23592325       0.006
   0.11459129  0.07489627  0.10859959       0.006
   0.14005602  0.07489627  0.23592325       0.006
   0.16552075  0.07489627  0.10859959       0.006
   0.19098549  0.07489627  0.23592325       0.006
   0.21645022  0.07489627  0.10859959       0.006
   0.24191495  0.07489627  0.23592325       0.006
   0.01273237  0.08238590  0.01123444       0.006
   0.03819710  0.08238590  0.13855810       0.006
   0.06366183  0.08238590  0.01123444       0.006
   0.08912656  0.08238590  0.13855810       0.006
   0.11459129  0.08238590  0.01123444       0.006
   0.14005602  0.08238590  0.13855810       0.006
   0.16552075  0.08238590  0.01123444       0.006
   0.19098549  0.08238590  0.13855810       0.006
   0.21645022  0.08238590  0.01123444       0.006
   0.24191495  0.08238590  0.13855810       0.006
   0.01273237  0.08987552  0.16851660       0.006
   0.03819710  0.08987552  0.04119295       0.006
   0.06366183  0.08987552  0.16851660       0.006
   0.08912656  0.08987552  0.04119295       0.006
   0.11459129  0.08987552  0.16851660       0.006
   0.14005602  0.08987552  0.04119295       0.006
   0.16552075  0.08987552  0.16851660       0.006
   0.19098549  0.08987552  0.04119295       0.006
   0.21645022  0.08987552  0.16851660       0.006
   0.24191495  0.08987552  0.04119295       0.006
   0.01273237  0.09736515  0.07115146       0.006
   0.03819710  0.09736515  0.19847511       0.006
   0.06366183  0.09736515  0.07115146       0.006
   0.08912656  0.09736515  0.19847511       0.006
   0.11459129  0.09736515  0.07115146       0.006
   0.14005602  0.09736515  0.19847511       0.006
   0.16552075  0.09736515  0.07115146       0.006
   0.19098549  0.09736515  0.19847511       0.006
   0.21645022  0.09736515  0.07115146       0.006
   0.24191495  0.09736515  0.19847511       0.006
   0.01273237  0.10485478  0.22843362       0.006
   0.03819710  0.10485478  0.10110996       0.006
   0.06366183  0.10485478  0.22843362       0.006
   0.08912656  0.10485478  0.10110996       0.006
   0.11459129  0.10485478  0.22843362       0.006
   0.14005602  0.10485478  0.10110996       0.006
   0.16552075  0.10485478  0.22843362       0.006
   0.19098549  0.10485478  0.10110996       0.006
   0.21645022  0.10485478  0.22843362       0.006
   0.24191495  0.10485478  0.10110996       0.006
   0.01273237  0.11234440  0.13106847       0.006
   0.03819710  0.11234440  0.00374481       0.006
   0.06366183  0.11234440  0.13106847       0.006
   0.08912656  0.11234440  0.00374481       0.006
   0.11459129  0.11234440  0.13106847       0.006
   0.14005602  0.11234440  0.00374481       0.006
   0.16552075  0.11234440  0.13106847       0.006
   0.19098549  0.11234440  0.00374481       0.006
   0.21645022  0.11234440  0.13106847       0.006
   0.24191495  0.11234440  0.00374481       0.006
   0.01273237  0.11983403  0.03370332       0.006
   0.03819710  0.11983403  0.16102698       0.006
   0.06366183  0.11983403  0.03370332       0.006
   0.08912656  0.11983403  0.16102698       0.006
   0.11459129  0.11983403  0.03370332       0.006
   0.14005602  0.11983403  0.16102698       0.006
   0.16552075  0.11983403  0.03370332       0.006
   0.19098549  0.11983403  0.16102698       0.006
   0.21645022  0.11983403  0.03370332       0.006
   0.24191495  0.11983403  0.16102698       0.006
   0.01273237  0.12732366  0.19098549       0.006
   0.03819710  0.12732366  0.06366183       0.006
   0.06366183  0.12732366  0.19098549       0.006
   0.08912656  0.12732366  0.06366183       0.006
   0.11459129  0.12732366  0.19098549       0.006
   0.01273237  0.23966806  0.00374481       0.006
   0.03819710  0.23966806  0.13106847       0.006
   0.06366183  0.23966806  0.00374481       0.006
   0.08912656  0.23966806  0.13106847       0.006
   0.11459129  0.23966806  0.00374481       0.006
   0.14005602  0.23966806  0.13106847       0.006
   0.16552075  0.23966806  0.00374481       0.006
   0.19098549  0.23966806  0.13106847       0.006
   0.21645022  0.23966806  0.00374481       0.006
   0.24191495  0.23966806  0.13106847       0.006
   0.01273237  0.24715769  0.16102698       0.006
   0.03819710  0.24715769  0.03370332       0.006
   0.06366183  0.24715769  0.16102698       0.006
   0.08912656  0.24715769  0.03370332       0.006
   0.11459129  0.24715769  0.16102698       0.006
   0.14005602  0.24715769  0.03370332       0.006
   0.16552075  0.24715769  0.16102698       0.006
   0.19098549  0.24715769  0.03370332       0.006
   0.21645022  0.24715769  0.16102698       0.006
   0.24191495  0.24715769  0.03370332       0.006
   0.01273237  0.25464731  0.06366183       0.006
   0.03819710  0.25464731  0.19098549       0.006
   0.06366183  0.25464731  0.06366183       0.006
   0.08912656  0.25464731  0.19098549       0.006
   0.11459129  0.25464731  0.06366183       0.006
 
 k-points in reciprocal lattice and weights: Server version 2017.05.18. K-point grid 
   0.05000000  0.08823529  0.10294118       0.006
   0.15000000  0.08823529  0.60294118       0.006
   0.25000000  0.08823529  0.10294118       0.006
   0.35000000  0.08823529  0.60294118       0.006
   0.45000000  0.08823529  0.10294118       0.006
   0.55000000  0.08823529  0.60294118       0.006
   0.65000000  0.08823529  0.10294118       0.006
   0.75000000  0.08823529  0.60294118       0.006
   0.85000000  0.08823529  0.10294118       0.006
   0.95000000  0.08823529  0.60294118       0.006
   0.05000000  0.11764706  0.72058824       0.006
   0.15000000  0.11764706  0.22058824       0.006
   0.25000000  0.11764706  0.72058824       0.006
   0.35000000  0.11764706  0.22058824       0.006
   0.45000000  0.11764706  0.72058824       0.006
   0.55000000  0.11764706  0.22058824       0.006
   0.65000000  0.11764706  0.72058824       0.006
   0.75000000  0.11764706  0.22058824       0.006
   0.85000000  0.11764706  0.72058824       0.006
   0.95000000  0.11764706  0.22058824       0.006
   0.05000000  0.14705882  0.33823529       0.006
   0.15000000  0.14705882  0.83823529       0.006
   0.25000000  0.14705882  0.33823529       0.006
   0.35000000  0.14705882  0.83823529       0.006
   0.45000000  0.14705882  0.33823529       0.006
   0.55000000  0.14705882  0.83823529       0.006
   0.65000000  0.14705882  0.33823529       0.006
   0.75000000  0.14705882  0.83823529       0.006
   0.85000000  0.14705882  0.33823529       0.006
   0.95000000  0.14705882  0.83823529       0.006
   0.05000000  0.17647059  0.95588235       0.006
   0.15000000  0.17647059  0.45588235       0.006
   0.25000000  0.17647059  0.95588235       0.006
   0.35000000  0.17647059  0.45588235       0.006
   0.45000000  0.17647059  0.95588235       0.006
   0.55000000  0.17647059  0.45588235       0.006
   0.65000000  0.17647059  0.95588235       0.006
   0.75000000  0.17647059  0.45588235       0.006
   0.85000000  0.17647059  0.95588235       0.006
   0.95000000  0.17647059  0.45588235       0.006
   0.05000000  0.20588235  0.57352941       0.006
   0.15000000  0.20588235  0.07352941       0.006
   0.25000000  0.20588235  0.57352941       0.006
   0.35000000  0.20588235  0.07352941       0.006
   0.45000000  0.20588235  0.57352941       0.006
   0.55000000  0.20588235  0.07352941       0.006
   0.65000000  0.20588235  0.57352941       0.006
   0.75000000  0.20588235  0.07352941       0.006
   0.85000000  0.20588235  0.57352941       0.006
   0.95000000  0.20588235  0.07352941       0.006
   0.05000000  0.23529412  0.19117647       0.006
   0.15000000  0.23529412  0.69117647       0.006
   0.25000000  0.23529412  0.19117647       0.006
   0.35000000  0.23529412  0.69117647       0.006
   0.45000000  0.23529412  0.19117647       0.006
   0.55000000  0.23529412  0.69117647       0.006
   0.65000000  0.23529412  0.19117647       0.006
   0.75000000  0.23529412  0.69117647       0.006
   0.85000000  0.23529412  0.19117647       0.006
   0.95000000  0.23529412  0.69117647       0.006
   0.05000000  0.26470588  0.80882353       0.006
   0.15000000  0.26470588  0.30882353       0.006
   0.25000000  0.26470588  0.80882353       0.006
   0.35000000  0.26470588  0.30882353       0.006
   0.45000000  0.26470588  0.80882353       0.006
   0.55000000  0.26470588  0.30882353       0.006
   0.65000000  0.26470588  0.80882353       0.006
   0.75000000  0.26470588  0.30882353       0.006
   0.85000000  0.26470588  0.80882353       0.006
   0.95000000  0.26470588  0.30882353       0.006
   0.05000000  0.29411765  0.42647059       0.006
   0.15000000  0.29411765  0.92647059       0.006
   0.25000000  0.29411765  0.42647059       0.006
   0.35000000  0.29411765  0.92647059       0.006
   0.45000000  0.29411765  0.42647059       0.006
   0.55000000  0.29411765  0.92647059       0.006
   0.65000000  0.29411765  0.42647059       0.006
   0.75000000  0.29411765  0.92647059       0.006
   0.85000000  0.29411765  0.42647059       0.006
   0.95000000  0.29411765  0.92647059       0.006
   0.05000000  0.32352941  0.04411765       0.006
   0.15000000  0.32352941  0.54411765       0.006
   0.25000000  0.32352941  0.04411765       0.006
   0.35000000  0.32352941  0.54411765       0.006
   0.45000000  0.32352941  0.04411765       0.006
   0.55000000  0.32352941  0.54411765       0.006
   0.65000000  0.32352941  0.04411765       0.006
   0.75000000  0.32352941  0.54411765       0.006
   0.85000000  0.32352941  0.04411765       0.006
   0.95000000  0.32352941  0.54411765       0.006
   0.05000000  0.35294118  0.66176471       0.006
   0.15000000  0.35294118  0.16176471       0.006
   0.25000000  0.35294118  0.66176471       0.006
   0.35000000  0.35294118  0.16176471       0.006
   0.45000000  0.35294118  0.66176471       0.006
   0.55000000  0.35294118  0.16176471       0.006
   0.65000000  0.35294118  0.66176471       0.006
   0.75000000  0.35294118  0.16176471       0.006
   0.85000000  0.35294118  0.66176471       0.006
   0.95000000  0.35294118  0.16176471       0.006
   0.05000000  0.38235294  0.27941176       0.006
   0.15000000  0.38235294  0.77941176       0.006
   0.25000000  0.38235294  0.27941176       0.006
   0.35000000  0.38235294  0.77941176       0.006
   0.45000000  0.38235294  0.27941176       0.006
   0.55000000  0.38235294  0.77941176       0.006
   0.65000000  0.38235294  0.27941176       0.006
   0.75000000  0.38235294  0.77941176       0.006
   0.85000000  0.38235294  0.27941176       0.006
   0.95000000  0.38235294  0.77941176       0.006
   0.05000000  0.41176471  0.89705882       0.006
   0.15000000  0.41176471  0.39705882       0.006
   0.25000000  0.41176471  0.89705882       0.006
   0.35000000  0.41176471  0.39705882       0.006
   0.45000000  0.41176471  0.89705882       0.006
   0.55000000  0.41176471  0.39705882       0.006
   0.65000000  0.41176471  0.89705882       0.006
   0.75000000  0.41176471  0.39705882       0.006
   0.85000000  0.41176471  0.89705882       0.006
   0.95000000  0.41176471  0.39705882       0.006
   0.05000000  0.44117647  0.51470588       0.006
   0.15000000  0.44117647  0.01470588       0.006
   0.25000000  0.44117647  0.51470588       0.006
   0.35000000  0.44117647  0.01470588       0.006
   0.45000000  0.44117647  0.51470588       0.006
   0.55000000  0.44117647  0.01470588       0.006
   0.65000000  0.44117647  0.51470588       0.006
   0.75000000  0.44117647  0.01470588       0.006
   0.85000000  0.44117647  0.51470588       0.006
   0.95000000  0.44117647  0.01470588       0.006
   0.05000000  0.47058824  0.13235294       0.006
   0.15000000  0.47058824  0.63235294       0.006
   0.25000000  0.47058824  0.13235294       0.006
   0.35000000  0.47058824  0.63235294       0.006
   0.45000000  0.47058824  0.13235294       0.006
   0.55000000  0.47058824  0.63235294       0.006
   0.65000000  0.47058824  0.13235294       0.006
   0.75000000  0.47058824  0.63235294       0.006
   0.85000000  0.47058824  0.13235294       0.006
   0.95000000  0.47058824  0.63235294       0.006
   0.05000000  0.50000000  0.75000000       0.006
   0.15000000  0.50000000  0.25000000       0.006
   0.25000000  0.50000000  0.75000000       0.006
   0.35000000  0.50000000  0.25000000       0.006
   0.45000000  0.50000000  0.75000000       0.006
   0.05000000  0.94117647  0.01470588       0.006
   0.15000000  0.94117647  0.51470588       0.006
   0.25000000  0.94117647  0.01470588       0.006
   0.35000000  0.94117647  0.51470588       0.006
   0.45000000  0.94117647  0.01470588       0.006
   0.55000000  0.94117647  0.51470588       0.006
   0.65000000  0.94117647  0.01470588       0.006
   0.75000000  0.94117647  0.51470588       0.006
   0.85000000  0.94117647  0.01470588       0.006
   0.95000000  0.94117647  0.51470588       0.006
   0.05000000  0.97058824  0.63235294       0.006
   0.15000000  0.97058824  0.13235294       0.006
   0.25000000  0.97058824  0.63235294       0.006
   0.35000000  0.97058824  0.13235294       0.006
   0.45000000  0.97058824  0.63235294       0.006
   0.55000000  0.97058824  0.13235294       0.006
   0.65000000  0.97058824  0.63235294       0.006
   0.75000000  0.97058824  0.13235294       0.006
   0.85000000  0.97058824  0.63235294       0.006
   0.95000000  0.97058824  0.13235294       0.006
   0.05000000  1.00000000  0.25000000       0.006
   0.15000000  1.00000000  0.75000000       0.006
   0.25000000  1.00000000  0.25000000       0.006
   0.35000000  1.00000000  0.75000000       0.006
   0.45000000  1.00000000  0.25000000       0.006
 
 position of ions in fractional coordinates (direct lattice) 
   0.00254647  0.00000000  0.00000000
   0.00000000  0.50000000  0.50000000
   0.50000000  0.00000000  0.50000000
   0.50000000  0.50000000  0.00000000
 
 position of ions in cartesian coordinates  (Angst):
   0.01000000  0.00000000  0.00000000
   0.00000000  1.96350000  1.96350000
   1.96350000  0.00000000  1.96350000
   1.96350000  1.96350000  0.00000000
 


--------------------------------------------------------------------------------------------------------


 k-point  1 :   0.0500 0.0882 0.1029  plane waves:    1525
 k-point  2 :   0.1500 0.0882 0.6029  plane waves:    1531
 k-point  3 :   0.2500 0.0882 0.1029  plane waves:    1530
 k-point  4 :   0.3500 0.0882 0.6029  plane waves:    1549
 k-point  5 :   0.4500 0.0882 0.1029  plane waves:    1538
 k-point  6 :   0.5500 0.0882 0.6029  plane waves:    1546
 k-point  7 :   0.6500 0.0882 0.1029  plane waves:    1529
 k-point  8 :   0.7500 0.0882 0.6029  plane waves:    1544
 k-point  9 :   0.8500 0.0882 0.1029  plane waves:    1524
 k-point 10 :   0.9500 0.0882 0.6029  plane waves:    1531
 k-point 11 :   0.0500 0.1176 0.7206  plane waves:    1529
 k-point 12 :   0.1500 0.1176 0.2206  plane waves:    1530
 k-point 13 :   0.2500 0.1176 0.7206  plane waves:    1540
 k-point 14 :   0.3500 0.1176 0.2206  plane waves:    1543
 k-point 15 :   0.4500 0.1176 0.7206  plane waves:    1537
 k-point 16 :   0.5500 0.1176 0.2206  plane waves:    1538
 k-point 17 :   0.6500 0.1176 0.7206  plane waves:    1543
 k-point 18 :   0.7500 0.1176 0.2206  plane waves:    1535
 k-point 19 :   0.8500 0.1176 0.7206  plane waves:    1536
 k-point 20 :   0.9500 0.1176 0.2206  plane waves:    1531
 k-point 21 :   0.0500 0.1471 0.3382  plane waves:    1537
 k-point 22 :   0.1500 0.1471 0.8382  plane waves:    1524
 k-point 23 :   0.2500 0.1471 0.3382  plane waves:    1543
 k-point 24 :   0.3500 0.1471 0.8382  plane waves:    1533
 k-point 25 :   0.4500 0.1471 0.3382  plane waves:    1533
 k-point 26 :   0.5500 0.1471 0.8382  plane waves:    1536
 k-point 27 :   0.6500 0.1471 0.3382  plane waves:    1542
 k-point 28 :   0.7500 0.1471 0.8382  plane waves:    1530
 k-point 29 :   0.8500 0.1471 0.3382  plane waves:    1534
 k-point 30 :   0.9500 0.1471 0.8382  plane waves:    1529
 k-point 31 :   0.0500 0.1765 0.9559  plane waves:    1527
 k-point 32 :   0.1500 0.1765 0.4559  plane waves:    1538
 k-point 33 :   0.2500 0.1765 0.9559  plane waves:    1536
 k-point 34 :   0.3500 0.1765 0.4559  plane waves:    1536
 k-point 35 :   0.4500 0.1765 0.9559  plane waves:    1537
 k-point 36 :   0.5500 0.1765 0.4559  plane waves:    1545
 k-point 37 :   0.6500 0.1765 0.9559  plane waves:    1534
 k-point 38 :   0.7500 0.1765 0.4559  plane waves:    1535
 k-point 39 :   0.8500 0.1765 0.9559  plane waves:    1533
 k-point 40 :   0.9500 0.1765 0.4559  plane waves:    1537
 k-point 41 :   0.0500 0.2059 0.5735  plane waves:    1536
 k-point 42 :   0.1500 0.2059 0.0735  plane waves:    1528
 k-point 43 :   0.2500 0.2059 0.5735  plane waves:    1532
 k-point 44 :   0.3500 0.2059 0.0735  plane waves:    1537
 k-point 45 :   0.4500 0.2059 0.5735  plane waves:    1542
 k-point 46 :   0.5500 0.2059 0.0735  plane waves:    1537
 k-point 47 :   0.6500 0.2059 0.5735  plane waves:    1535
 k-point 48 :   0.7500 0.2059 0.0735  plane waves:    1538
 k-point 49 :   0.8500 0.2059 0.5735  plane waves:    1539
 k-point 50 :   0.9500 0.2059 0.0735  plane waves:    1528
 k-point 51 :   0.0500 0.2353 0.1912  plane waves:    1536
 k-point 52 :   0.1500 0.2353 0.6912  plane waves:    1543
 k-point 53 :   0.2500 0.2353 0.1912  plane waves:    1539
 k-point 54 :   0.3500 0.2353 0.6912  plane waves:    1532
 k-point 55 :   0.4500 0.2353 0.1912  plane waves:    1534
 k-point 56 :   0.5500 0.2353 0.6912  plane waves:    1536
 k-point 57 :   0.6500 0.2353 0.1912  plane waves:    1536
 k-point 58 :   0.7500 0.2353 0.6912  plane waves:    1538
 k-point 59 :   0.8500 0.2353 0.1912  plane waves:    1530
 k-point 60 :   0.9500 0.2353 0.6912  plane waves:    1542
 k-point 61 :   0.0500 0.2647 0.8088  plane waves:    1537
 k-point 62 :   0.1500 0.2647 0.3088  plane waves:    1540
 k-point 63 :   0.2500 0.2647 0.8088  plane waves:    1541
 k-point 64 :   0.3500 0.2647 0.3088  plane waves:    1536
 k-point 65 :   0.4500 0.2647 0.8088  plane waves:    1532
 k-point 66 :   0.5500 0.2647 0.3088  plane waves:    1534
 k-point 67 :   0.6500 0.2647 0.8088  plane waves:    1540
 k-point 68 :   0.7500 0.2647 0.3088  plane waves:    1534
 k-point 69 :   0.8500 0.2647 0.8088  plane waves:    1534
 k-point 70 :   0.9500 0.2647 0.3088  plane waves:    1539
 k-point 71 :   0.0500 0.2941 0.4265  plane waves:    1546
 k-point 72 :   0.1500 0.2941 0.9265  plane waves:    1532
 k-point 73 :   0.2500 0.2941 0.4265  plane waves:    1534
 k-point 74 :   0.3500 0.2941 0.9265  plane waves:    1545
 k-point 75 :   0.4500 0.2941 0.4265  plane waves:    1541
 k-point 76 :   0.5500 0.2941 0.9265  plane waves:    1545
 k-point 77 :   0.6500 0.2941 0.4265  plane waves:    1532
 k-point 78 :   0.7500 0.2941 0.9265  plane waves:    1545
 k-point 79 :   0.8500 0.2941 0.4265  plane waves:    1538
 k-point 80 :   0.9500 0.2941 0.9265  plane waves:    1526
 k-point 81 :   0.0500 0.3235 0.0441  plane waves:    1534
 k-point 82 :   0.1500 0.3235 0.5441  plane waves:    1533
 k-point 83 :   0.2500 0.3235 0.0441  plane waves:    1542
 k-point 84 :   0.3500 0.3235 0.5441  plane waves:    1531
 k-point 85 :   0.4500 0.3235 0.0441  plane waves:    1550
 k-point 86 :   0.5500 0.3235 0.5441  plane waves:    1543
 k-point 87 :   0.6500 0.3235 0.0441  plane waves:    1544
 k-point 88 :   0.7500 0.3235 0.5441  plane waves:    1537
 k-point 89 :   0.8500 0.3235 0.0441  plane waves:    1535
 k-point 90 :   0.9500 0.3235 0.5441  plane waves:    1549
 k-point 91 :   0.0500 0.3529 0.6618  plane waves:    1543
 k-point 92 :   0.1500 0.3529 0.1618  plane waves:    1534
 k-point 93 :   0.2500 0.3529 0.6618  plane waves:    1535
 k-point 94 :   0.3500 0.3529 0.1618  plane waves:    1543
 k-point 95 :   0.4500 0.3529 0.6618  plane waves:    1533
 k-point 96 :   0.5500 0.3529 0.1618  plane waves:    1536
 k-point 97 :   0.6500 0.3529 0.6618  plane waves:    1532
 k-point 98 :   0.7500 0.3529 0.1618  plane waves:    1540
 k-point 99 :   0.8500 0.3529 0.6618  plane waves:    1542
 k-point ** :   0.9500 0.3529 0.1618  plane waves:    1535
 k-point ** :   0.0500 0.3824 0.2794  plane waves:    1545
 k-point ** :   0.1500 0.3824 0.7794  plane waves:    1538
 k-point ** :   0.2500 0.3824 0.2794  plane waves:    1533
 k-point ** :   0.3500 0.3824 0.7794  plane waves:    1536
 k-point ** :   0.4500 0.3824 0.2794  plane waves:    1530
 k-point ** :   0.5500 0.3824 0.7794  plane waves:    1537
 k-point ** :   0.6500 0.3824 0.2794  plane waves:    1535
 k-point ** :   0.7500 0.3824 0.7794  plane waves:    1534
 k-point ** :   0.8500 0.3824 0.2794  plane waves:    1538
 k-point ** :   0.9500 0.3824 0.7794  plane waves:    1542
 k-point ** :   0.0500 0.4118 0.8971  plane waves:    1535
 k-point ** :   0.1500 0.4118 0.3971  plane waves:    1541
 k-point ** :   0.2500 0.4118 0.8971  plane waves:    1542
 k-point ** :   0.3500 0.4118 0.3971  plane waves:    1537
 k-point ** :   0.4500 0.4118 0.8971  plane waves:    1546
 k-point ** :   0.5500 0.4118 0.3971  plane waves:    1544
 k-point ** :   0.6500 0.4118 0.8971  plane waves:    1549
 k-point ** :   0.7500 0.4118 0.3971  plane waves:    1536
 k-point ** :   0.8500 0.4118 0.8971  plane waves:    1535
 k-point ** :   0.9500 0.4118 0.3971  plane waves:    1545
 k-point ** :   0.0500 0.4412 0.5147  plane waves:    1546
 k-point ** :   0.1500 0.4412 0.0147  plane waves:    1536
 k-point ** :   0.2500 0.4412 0.5147  plane waves:    1542
 k-point ** :   0.3500 0.4412 0.0147  plane waves:    1551
 k-point ** :   0.4500 0.4412 0.5147  plane waves:    1541
 k-point ** :   0.5500 0.4412 0.0147  plane waves:    1541
 k-point ** :   0.6500 0.4412 0.5147  plane waves:    1542
 k-point ** :   0.7500 0.4412 0.0147  plane waves:    1541
 k-point ** :   0.8500 0.4412 0.5147  plane waves:    1543
 k-point ** :   0.9500 0.4412 0.0147  plane waves:    1528
 k-point ** :   0.0500 0.4706 0.1324  plane waves:    1539
 k-point ** :   0.1500 0.4706 0.6324  plane waves:    1542
 k-point ** :   0.2500 0.4706 0.1324  plane waves:    1540
 k-point ** :   0.3500 0.4706 0.6324  plane waves:    1535
 k-point ** :   0.4500 0.4706 0.1324  plane waves:    1539
 k-point ** :   0.5500 0.4706 0.6324  plane waves:    1542
 k-point ** :   0.6500 0.4706 0.1324  plane waves:    1542
 k-point ** :   0.7500 0.4706 0.6324  plane waves:    1531
 k-point ** :   0.8500 0.4706 0.1324  plane waves:    1537
 k-point ** :   0.9500 0.4706 0.6324  plane waves:    1549
 k-point ** :   0.0500 0.5000 0.7500  plane waves:    1540
 k-point ** :   0.1500 0.5000 0.2500  plane waves:    1538
 k-point ** :   0.2500 0.5000 0.7500  plane waves:    1528
 k-point ** :   0.3500 0.5000 0.2500  plane waves:    1532
 k-point ** :   0.4500 0.5000 0.7500  plane waves:    1540
 k-point ** :   0.0500 0.9412 0.0147  plane waves:    1536
 k-point ** :   0.1500 0.9412 0.5147  plane waves:    1536
 k-point ** :   0.2500 0.9412 0.0147  plane waves:    1530
 k-point ** :   0.3500 0.9412 0.5147  plane waves:    1548
 k-point ** :   0.4500 0.9412 0.0147  plane waves:    1530
 k-point ** :   0.5500 0.9412 0.5147  plane waves:    1544
 k-point ** :   0.6500 0.9412 0.0147  plane waves:    1529
 k-point ** :   0.7500 0.9412 0.5147  plane waves:    1539
 k-point ** :   0.8500 0.9412 0.0147  plane waves:    1530
 k-point ** :   0.9500 0.9412 0.5147  plane waves:    1532
 k-point ** :   0.0500 0.9706 0.6324  plane waves:    1533
 k-point ** :   0.1500 0.9706 0.1324  plane waves:    1523
 k-point ** :   0.2500 0.9706 0.6324  plane waves:    1542
 k-point ** :   0.3500 0.9706 0.1324  plane waves:    1536
 k-point ** :   0.4500 0.9706 0.6324  plane waves:    1551
 k-point ** :   0.5500 0.9706 0.1324  plane waves:    1537
 k-point ** :   0.6500 0.9706 0.6324  plane waves:    1544
 k-point ** :   0.7500 0.9706 0.1324  plane waves:    1533
 k-point ** :   0.8500 0.9706 0.6324  plane waves:    1534
 k-point ** :   0.9500 0.9706 0.1324  plane waves:    1525
 k-point ** :   0.0500 1.0000 0.2500  plane waves:    1529
 k-point ** :   0.1500 1.0000 0.7500  plane waves:    1533
 k-point ** :   0.2500 1.0000 0.2500  plane waves:    1554
 k-point ** :   0.3500 1.0000 0.7500  plane waves:    1541
 k-point ** :   0.4500 1.0000 0.2500  plane waves:    1541

 maximum number of plane-waves:      1554
 maximum index in each direction: 
   IXMAX=    7   IYMAX=    7   IZMAX=    7
   IXMIN=   -8   IYMIN=   -8   IZMIN=   -8

 WARNING: aliasing errors must be expected set NGX to  32 to avoid them
 WARNING: aliasing errors must be expected set NGY to  32 to avoid them
 WARNING: aliasing errors must be expected set NGZ to  32 to avoid them
 aliasing errors are usually negligible using standard VASP settings
 and one can safely disregard these warnings

 total amount of memory used by VASP on root node   247958. kBytes
========================================================================

   base      :      30000. kBytes
   nonl-proj :      38141. kBytes
   grid      :      11692. kBytes
   one-center:         62. kBytes
   wavefun   :     168063. kBytes
 
 For storing wavefunctions  158.88 MBYTES are necessary
 For predicting wavefunctions    3.87 MBYTES are necessary
 Broyden mixing: mesh for mixing (old mesh)
   NGX = 15   NGY = 15   NGZ = 15
  (NGX  = 60   NGY  = 60   NGZ  = 60)
  gives a total of   3375 points

 initial charge density was supplied:
 charge density of overlapping atoms calculated
 number of electron      64.0000000 magnetization 
 keeping initial charge density in first step


--------------------------------------------------------------------------------------------------------


 Maximum index for augmentation-charges       138745 (set IRDMAX)


--------------------------------------------------------------------------------------------------------


 First call to EWALD:  gamma=   0.451
 Maximum number of real-space cells 3x 3x 3
 Maximum number of reciprocal cells 3x 3x 3

    FEWALD:  cpu time    0.00: real time    0.00


----------------------------------------- Iteration    1(   1)  ---------------------------------------


    POTLOK:  cpu time    0.21: real time    0.22
    SETDIJ:  cpu time    0.36: real time    0.36
     EDDAV:  cpu time   71.03: real time   71.04
       DOS:  cpu time    0.03: real time    0.03
    --------------------------------------------
      LOOP:  cpu time   71.64: real time   71.64

 eigenvalue-minimisations  : 13336
 total energy-change (2. order) : 0.7658863E+03  (-0.3942795E+04)
 number of electron      64.0000000 magnetization 
 augmentation part       64.0000000 magnetization 

 Free energy of the ion-electron system (eV)
  ---------------------------------------------------
  alpha Z        PSCENC =       538.72185181
  Ewald energy   TEWEN  =     -8607.74679165
  -1/2 Hartree   DENC   =     -2237.12837724
  -exchange  EXHF       =         0.00000000
  -V(xc)+E(xc)   XCENC  =       331.12609095
  PAW double counting   =      9031.96127590    -8916.66826490
  entropy T*S    EENTRO =        -0.00288328
  eigenvalues    EBANDS =       139.44014227
  atomic energy  EATOM  =     10486.18329226
  ---------------------------------------------------
  free energy    TOTEN  =       765.88633611 eV

  energy without entropy =      765.88921940  energy(sigma->0) =      765.88777776


--------------------------------------------------------------------------------------------------------




----------------------------------------- Iteration    1(   2)  ---------------------------------------


     EDDAV:  cpu time   71.93: real time   71.93
       DOS:  cpu time    0.03: real time    0.03
    --------------------------------------------
      LOOP:  cpu time   71.96: real time   71.97

 eigenvalue-minimisations  : 13462
 total energy-change (2. order) :-0.7586219E+03  (-0.7356375E+03)
 number of electron      64.0000000 magnetization 
 augmentation part       64.0000000 magnetization 

 Free energy of the ion-electron system (eV)
  ---------------------------------------------------
  alpha Z        PSCENC =       538.72185181
  Ewald energy   TEWEN  =     -8607.74679165
  -1/2 Hartree   DENC   =     -2237.12837724
  -exchange  EXHF       =         0.00000000
  -V(xc)+E(xc)   XCENC  =       331.12609095
  PAW double counting   =      9031.96127590    -8916.66826490
  entropy T*S    EENTRO =        -0.02418913
  eigenvalues    EBANDS =      -619.16049411
  atomic energy  EATOM  =     10486.18329226
  ---------------------------------------------------
  free energy    TOTEN  =         7.26439388 eV

  energy without entropy =        7.28858301  energy(sigma->0) =        7.27648844


--------------------------------------------------------------------------------------------------------




----------------------------------------- Iteration    1(   3)  ---------------------------------------


     EDDAV:  cpu time   74.09: real time   74.10
       DOS:  cpu time    0.03: real time    0.03
    --------------------------------------------
      LOOP:  cpu time   74.12: real time   74.13

 eigenvalue-minimisations  : 14048
 total energy-change (2. order) :-0.2880785E+02  (-0.2774749E+02)
 number of electron      64.0000000 magnetization 
 augmentation part       64.0000000 magnetization 

 Free energy of the ion-electron system (eV)
  ---------------------------------------------------
  alpha Z        PSCENC =       538.72185181
  Ewald energy   TEWEN  =     -8607.74679165
  -1/2 Hartree   DENC   =     -2237.12837724
  -exchange  EXHF       =         0.00000000
  -V(xc)+E(xc)   XCENC  =       331.12609095
  PAW double counting   =      9031.96127590    -8916.66826490
  entropy T*S    EENTRO =        -0.05047715
  eigenvalues    EBANDS =      -647.94205209
  atomic energy  EATOM  =     10486.18329226
  ---------------------------------------------------
  free energy    TOTEN  =       -21.54345211 eV

  energy without entropy =      -21.49297497  energy(sigma->0) =      -21.51821354


--------------------------------------------------------------------------------------------------------




----------------------------------------- Iteration    1(   4)  ---------------------------------------


     EDDAV:  cpu time   73.99: real time   74.00
       DOS:  cpu time    0.03: real time    0.03
    --------------------------------------------
      LOOP:  cpu time   74.02: real time   74.03

 eigenvalue-minimisations  : 14024
 total energy-change (2. order) :-0.3458561E+00  (-0.3453112E+00)
 number of electron      64.0000000 magnetization 
 augmentation part       64.0000000 magnetization 

 Free energy of the ion-electron system (eV)
  ---------------------------------------------------
  alpha Z        PSCENC =       538.72185181
  Ewald energy   TEWEN  =     -8607.74679165
  -1/2 Hartree   DENC   =     -2237.12837724
  -exchange  EXHF       =         0.00000000
  -V(xc)+E(xc)   XCENC  =       331.12609095
  PAW double counting   =      9031.96127590    -8916.66826490
  entropy T*S    EENTRO =        -0.05082285
  eigenvalues    EBANDS =      -648.28756247
  atomic energy  EATOM  =     10486.18329226
  ---------------------------------------------------
  free energy    TOTEN  =       -21.88930820 eV

  energy without entropy =      -21.83848535  energy(sigma->0) =      -21.86389678


--------------------------------------------------------------------------------------------------------




----------------------------------------- Iteration    1(   5)  ---------------------------------------


     EDDAV:  cpu time   74.38: real time   74.39
       DOS:  cpu time    0.03: real time    0.03
    CHARGE:  cpu time    8.67: real time    8.67
    MIXING:  cpu time    0.00: real time    0.00
    --------------------------------------------
      LOOP:  cpu time   83.08: real time   83.09

 eigenvalue-minimisations  : 14126
 total energy-change (2. order) :-0.5167537E-02  (-0.5167408E-02)
 number of electron      64.0000003 magnetization 
 augmentation part       29.8829973 magnetization 

 Broyden mixing:
  rms(total) = 0.97287E+00    rms(broyden)= 0.97284E+00
  rms(prec ) = 0.17959E+01
  weight for this iteration     100.00

 Free energy of the ion-electron system (eV)
  ---------------------------------------------------
  alpha Z        PSCENC =       538.72185181
  Ewald energy   TEWEN  =     -8607.74679165
  -1/2 Hartree   DENC   =     -2237.12837724
  -exchange  EXHF       =         0.00000000
  -V(xc)+E(xc)   XCENC  =       331.12609095
  PAW double counting   =      9031.96127590    -8916.66826490
  entropy T*S    EENTRO =        -0.05081609
  eigenvalues    EBANDS =      -648.29273677
  atomic energy  EATOM  =     10486.18329226
  ---------------------------------------------------
  free energy    TOTEN  =       -21.89447574 eV

  energy without entropy =      -21.84365965  energy(sigma->0) =      -21.86906769


--------------------------------------------------------------------------------------------------------




----------------------------------------- Iteration    1(   6)  ---------------------------------------


    POTLOK:  cpu time    0.21: real time    0.21
    SETDIJ:  cpu time    0.33: real time    0.33
     EDDAV:  cpu time   72.43: real time   72.43
       DOS:  cpu time    0.03: real time    0.03
    CHARGE:  cpu time    8.66: real time    8.66
    MIXING:  cpu time    0.00: real time    0.00
    --------------------------------------------
      LOOP:  cpu time   81.66: real time   81.67

 eigenvalue-minimisations  : 13564
 total energy-change (2. order) : 0.1026928E+01  (-0.4123259E+00)
 number of electron      64.0000003 magnetization 
 augmentation part       30.7034803 magnetization 

 Broyden mixing:
  rms(total) = 0.19992E+00    rms(broyden)= 0.19990E+00
  rms(prec ) = 0.25105E+00
  weight for this iteration     100.00

 eigenvalues of (default mixing * dielectric matrix)
  average eigenvalue GAMMA=   1.1116
  1.1116

 Free energy of the ion-electron system (eV)
  ---------------------------------------------------
  alpha Z        PSCENC =       538.72185181
  Ewald energy   TEWEN  =     -8607.74679165
  -1/2 Hartree   DENC   =     -2168.63606364
  -exchange  EXHF       =         0.00000000
  -V(xc)+E(xc)   XCENC  =       328.13916207
  PAW double counting   =      9243.72816858    -9135.99849608
  entropy T*S    EENTRO =        -0.05242653
  eigenvalues    EBANDS =      -705.20624426
  atomic energy  EATOM  =     10486.18329226
  ---------------------------------------------------
  free energy    TOTEN  =       -20.86754745 eV

  energy without entropy =      -20.81512092  energy(sigma->0) =      -20.84133419


--------------------------------------------------------------------------------------------------------




----------------------------------------- Iteration    1(   7)  ---------------------------------------


    POTLOK:  cpu time    0.21: real time    0.21
    SETDIJ:  cpu time    0.33: real time    0.33
     EDDAV:  cpu time   73.70: real time   73.71
       DOS:  cpu time    0.03: real time    0.03
    CHARGE:  cpu time    8.65: real time    8.65
    MIXING:  cpu time    0.00: real time    0.00
    --------------------------------------------
      LOOP:  cpu time   82.93: real time   82.94

 eigenvalue-minimisations  : 13904
 total energy-change (2. order) : 0.1206971E-01  (-0.2927269E-02)
 number of electron      64.0000003 magnetization 
 augmentation part       30.6836538 magnetization 

 Broyden mixing:
  rms(total) = 0.12301E+00    rms(broyden)= 0.12301E+00
  rms(prec ) = 0.15486E+00
  weight for this iteration     100.00

 eigenvalues of (default mixing * dielectric matrix)
  average eigenvalue GAMMA=   1.7546
  0.9750  2.5341

 Free energy of the ion-electron system (eV)
  ---------------------------------------------------
  alpha Z        PSCENC =       538.72185181
  Ewald energy   TEWEN  =     -8607.74679165
  -1/2 Hartree   DENC   =     -2168.06601066
  -exchange  EXHF       =         0.00000000
  -V(xc)+E(xc)   XCENC  =       328.11016526
  PAW double counting   =      9370.48352612    -9264.03204218
  entropy T*S    EENTRO =        -0.05225421
  eigenvalues    EBANDS =      -704.45721450
  atomic energy  EATOM  =     10486.18329226
  ---------------------------------------------------
  free energy    TOTEN  =       -20.85547774 eV

  energy without entropy =      -20.80322354  energy(sigma->0) =      -20.82935064


--------------------------------------------------------------------------------------------------------




----------------------------------------- Iteration    1(   8)  ---------------------------------------


    POTLOK:  cpu time    0.21: real time    0.21
    SETDIJ:  cpu time    0.33: real time    0.33
     EDDAV:  cpu time   74.46: real time   74.47
       DOS:  cpu time    0.03: real time    0.03
    CHARGE:  cpu time    8.65: real time    8.65
    MIXING:  cpu time    0.00: real time    0.00
    --------------------------------------------
      LOOP:  cpu time   83.68: real time   83.69

 eigenvalue-minimisations  : 14114
 total energy-change (2. order) : 0.4909102E-02  (-0.6281390E-03)
 number of electron      64.0000003 magnetization 
 augmentation part       30.6876476 magnetization 

 Broyden mixing:
  rms(total) = 0.41041E-02    rms(broyden)= 0.41034E-02
  rms(prec ) = 0.10646E-01
  weight for this iteration     100.00

 eigenvalues of (default mixing * dielectric matrix)
  average eigenvalue GAMMA=   1.3724
  2.5298  0.9752  0.6122

 Free energy of the ion-electron system (eV)
  ---------------------------------------------------
  alpha Z        PSCENC =       538.72185181
  Ewald energy   TEWEN  =     -8607.74679165
  -1/2 Hartree   DENC   =     -2164.79497757
  -exchange  EXHF       =         0.00000000
  -V(xc)+E(xc)   XCENC  =       327.96444244
  PAW double counting   =      9560.62614741    -9455.87234336
  entropy T*S    EENTRO =        -0.05217645
  eigenvalues    EBANDS =      -705.88001353
  atomic energy  EATOM  =     10486.18329226
  ---------------------------------------------------
  free energy    TOTEN  =       -20.85056864 eV

  energy without entropy =      -20.79839219  energy(sigma->0) =      -20.82448042


--------------------------------------------------------------------------------------------------------




----------------------------------------- Iteration    1(   9)  ---------------------------------------


    POTLOK:  cpu time    0.21: real time    0.21
    SETDIJ:  cpu time    0.33: real time    0.33
     EDDAV:  cpu time   73.70: real time   73.70
       DOS:  cpu time    0.03: real time    0.03
    CHARGE:  cpu time    8.66: real time    8.66
    MIXING:  cpu time    0.00: real time    0.01
    --------------------------------------------
      LOOP:  cpu time   82.93: real time   82.94

 eigenvalue-minimisations  : 13904
 total energy-change (2. order) : 0.1446630E-05  (-0.1952601E-04)
 number of electron      64.0000003 magnetization 
 augmentation part       30.6887698 magnetization 

 Broyden mixing:
  rms(total) = 0.27066E-02    rms(broyden)= 0.27063E-02
  rms(prec ) = 0.58221E-02
  weight for this iteration     100.00

 eigenvalues of (default mixing * dielectric matrix)
  average eigenvalue GAMMA=   1.2254
  2.5229  1.1250  0.9704  0.2831

 Free energy of the ion-electron system (eV)
  ---------------------------------------------------
  alpha Z        PSCENC =       538.72185181
  Ewald energy   TEWEN  =     -8607.74679165
  -1/2 Hartree   DENC   =     -2164.83420864
  -exchange  EXHF       =         0.00000000
  -V(xc)+E(xc)   XCENC  =       327.96617255
  PAW double counting   =      9561.20182256    -9456.37775475
  entropy T*S    EENTRO =        -0.05217430
  eigenvalues    EBANDS =      -705.91277703
  atomic energy  EATOM  =     10486.18329226
  ---------------------------------------------------
  free energy    TOTEN  =       -20.85056719 eV

  energy without entropy =      -20.79839289  energy(sigma->0) =      -20.82448004


--------------------------------------------------------------------------------------------------------




----------------------------------------- Iteration    1(  10)  ---------------------------------------


    POTLOK:  cpu time    0.21: real time    0.21
    SETDIJ:  cpu time    0.33: real time    0.33
     EDDAV:  cpu time   74.91: real time   74.92
       DOS:  cpu time    0.03: real time    0.03
    CHARGE:  cpu time    8.65: real time    8.65
    MIXING:  cpu time    0.00: real time    0.00
    --------------------------------------------
      LOOP:  cpu time   84.14: real time   84.15

 eigenvalue-minimisations  : 14234
 total energy-change (2. order) : 0.8029507E-05  (-0.2395702E-05)
 number of electron      64.0000003 magnetization 
 augmentation part       30.6895471 magnetization 

 Broyden mixing:
  rms(total) = 0.16448E-02    rms(broyden)= 0.16447E-02
  rms(prec ) = 0.34191E-02
  weight for this iteration     100.00

 eigenvalues of (default mixing * dielectric matrix)
  average eigenvalue GAMMA=   1.4492
  2.5802  2.4001  0.9977  0.9977  0.2704

 Free energy of the ion-electron system (eV)
  ---------------------------------------------------
  alpha Z        PSCENC =       538.72185181
  Ewald energy   TEWEN  =     -8607.74679165
  -1/2 Hartree   DENC   =     -2164.96463349
  -exchange  EXHF       =         0.00000000
  -V(xc)+E(xc)   XCENC  =       327.97191966
  PAW double counting   =      9563.08108028    -9458.08389519
  entropy T*S    EENTRO =        -0.05217044
  eigenvalues    EBANDS =      -705.96121241
  atomic energy  EATOM  =     10486.18329226
  ---------------------------------------------------
  free energy    TOTEN  =       -20.85055916 eV

  energy without entropy =      -20.79838873  energy(sigma->0) =      -20.82447395


--------------------------------------------------------------------------------------------------------




----------------------------------------- Iteration    1(  11)  ---------------------------------------


    POTLOK:  cpu time    0.21: real time    0.21
    SETDIJ:  cpu time    0.33: real time    0.33
     EDDAV:  cpu time   73.12: real time   73.13
       DOS:  cpu time    0.03: real time    0.03
    CHARGE:  cpu time    8.66: real time    8.66
    MIXING:  cpu time    0.00: real time    0.00
    --------------------------------------------
      LOOP:  cpu time   82.35: real time   82.36

 eigenvalue-minimisations  : 13766
 total energy-change (2. order) : 0.3502159E-05  (-0.1017891E-05)
 number of electron      64.0000003 magnetization 
 augmentation part       30.6892029 magnetization 

 Broyden mixing:
  rms(total) = 0.94595E-03    rms(broyden)= 0.94580E-03
  rms(prec ) = 0.27879E-02
  weight for this iteration     100.00

 eigenvalues of (default mixing * dielectric matrix)
  average eigenvalue GAMMA=   1.2758
  2.6091  2.4452  1.0028  1.0028  0.2695  0.3252

 Free energy of the ion-electron system (eV)
  ---------------------------------------------------
  alpha Z        PSCENC =       538.72185181
  Ewald energy   TEWEN  =     -8607.74679165
  -1/2 Hartree   DENC   =     -2165.19528682
  -exchange  EXHF       =         0.00000000
  -V(xc)+E(xc)   XCENC  =       327.98204198
  PAW double counting   =      9566.70592598    -9461.51412863
  entropy T*S    EENTRO =        -0.05216500
  eigenvalues    EBANDS =      -705.93529559
  atomic energy  EATOM  =     10486.18329226
  ---------------------------------------------------
  free energy    TOTEN  =       -20.85055566 eV

  energy without entropy =      -20.79839066  energy(sigma->0) =      -20.82447316


--------------------------------------------------------------------------------------------------------




----------------------------------------- Iteration    1(  12)  ---------------------------------------


    POTLOK:  cpu time    0.21: real time    0.21
    SETDIJ:  cpu time    0.32: real time    0.32
     EDDAV:  cpu time   73.37: real time   73.38
       DOS:  cpu time    0.03: real time    0.03
    CHARGE:  cpu time    8.66: real time    8.66
    MIXING:  cpu time    0.00: real time    0.00
    --------------------------------------------
      LOOP:  cpu time   82.60: real time   82.61

 eigenvalue-minimisations  : 13836
 total energy-change (2. order) : 0.2350442E-05  (-0.3559914E-06)
 number of electron      64.0000003 magnetization 
 augmentation part       30.6891715 magnetization 

 Broyden mixing:
  rms(total) = 0.15784E-03    rms(broyden)= 0.15705E-03
  rms(prec ) = 0.31111E-03
  weight for this iteration     100.00

 eigenvalues of (default mixing * dielectric matrix)
  average eigenvalue GAMMA=   1.2559
  2.5670  2.4338  1.3120  0.9658  0.9658  0.2682  0.2784

 Free energy of the ion-electron system (eV)
  ---------------------------------------------------
  alpha Z        PSCENC =       538.72185181
  Ewald energy   TEWEN  =     -8607.74679165
  -1/2 Hartree   DENC   =     -2165.22322810
  -exchange  EXHF       =         0.00000000
  -V(xc)+E(xc)   XCENC  =       327.98327088
  PAW double counting   =      9567.14495973    -9461.92891202
  entropy T*S    EENTRO =        -0.05216449
  eigenvalues    EBANDS =      -705.93283173
  atomic energy  EATOM  =     10486.18329226
  ---------------------------------------------------
  free energy    TOTEN  =       -20.85055331 eV

  energy without entropy =      -20.79838882  energy(sigma->0) =      -20.82447107


--------------------------------------------------------------------------------------------------------




----------------------------------------- Iteration    1(  13)  ---------------------------------------


    POTLOK:  cpu time    0.21: real time    0.21
    SETDIJ:  cpu time    0.33: real time    0.33
     EDDAV:  cpu time   73.20: real time   73.20
       DOS:  cpu time    0.03: real time    0.03
    CHARGE:  cpu time    8.66: real time    8.66
    MIXING:  cpu time    0.01: real time    0.01
    --------------------------------------------
      LOOP:  cpu time   82.43: real time   82.44

 eigenvalue-minimisations  : 13790
 total energy-change (2. order) : 0.7285071E-06  (-0.3067435E-07)
 number of electron      64.0000003 magnetization 
 augmentation part       30.6892463 magnetization 

 Broyden mixing:
  rms(total) = 0.70923E-04    rms(broyden)= 0.69332E-04
  rms(prec ) = 0.15241E-03
  weight for this iteration     100.00

 eigenvalues of (default mixing * dielectric matrix)
  average eigenvalue GAMMA=   1.2347
  2.5856  2.4556  1.5037  0.9629  0.9125  0.9125  0.2674  0.2779

 Free energy of the ion-electron system (eV)
  ---------------------------------------------------
  alpha Z        PSCENC =       538.72185181
  Ewald energy   TEWEN  =     -8607.74679165
  -1/2 Hartree   DENC   =     -2165.22345997
  -exchange  EXHF       =         0.00000000
  -V(xc)+E(xc)   XCENC  =       327.98329288
  PAW double counting   =      9567.14327351    -9461.92202371
  entropy T*S    EENTRO =        -0.05216410
  eigenvalues    EBANDS =      -705.93782360
  atomic energy  EATOM  =     10486.18329226
  ---------------------------------------------------
  free energy    TOTEN  =       -20.85055258 eV

  energy without entropy =      -20.79838848  energy(sigma->0) =      -20.82447053


--------------------------------------------------------------------------------------------------------




----------------------------------------- Iteration    1(  14)  ---------------------------------------


    POTLOK:  cpu time    0.21: real time    0.21
    SETDIJ:  cpu time    0.33: real time    0.33
     EDDAV:  cpu time   53.25: real time   53.25
       DOS:  cpu time    0.03: real time    0.03
    CHARGE:  cpu time    8.65: real time    8.66
    MIXING:  cpu time    0.00: real time    0.01
    --------------------------------------------
      LOOP:  cpu time   62.47: real time   62.48

 eigenvalue-minimisations  :  8336
 total energy-change (2. order) : 0.7233029E-07  (-0.3564031E-08)
 number of electron      64.0000003 magnetization 
 augmentation part       30.6892515 magnetization 

 Broyden mixing:
  rms(total) = 0.66407E-04    rms(broyden)= 0.64715E-04
  rms(prec ) = 0.16959E-03
  weight for this iteration     100.00

 eigenvalues of (default mixing * dielectric matrix)
  average eigenvalue GAMMA=   1.1858
  2.6165  2.4744  1.7333  0.9861  1.0109  1.0109  0.2675  0.2768  0.2960

 Free energy of the ion-electron system (eV)
  ---------------------------------------------------
  alpha Z        PSCENC =       538.72185181
  Ewald energy   TEWEN  =     -8607.74679165
  -1/2 Hartree   DENC   =     -2165.22368435
  -exchange  EXHF       =         0.00000000
  -V(xc)+E(xc)   XCENC  =       327.98330597
  PAW double counting   =      9567.13499241    -9461.91326968
  entropy T*S    EENTRO =        -0.05216405
  eigenvalues    EBANDS =      -705.93808523
  atomic energy  EATOM  =     10486.18329226
  ---------------------------------------------------
  free energy    TOTEN  =       -20.85055251 eV

  energy without entropy =      -20.79838846  energy(sigma->0) =      -20.82447049


--------------------------------------------------------------------------------------------------------




----------------------------------------- Iteration    1(  15)  ---------------------------------------


    POTLOK:  cpu time    0.21: real time    0.21
    SETDIJ:  cpu time    0.33: real time    0.33
     EDDAV:  cpu time   49.30: real time   49.30
       DOS:  cpu time    0.03: real time    0.03
    CHARGE:  cpu time    8.66: real time    8.66
    MIXING:  cpu time    0.00: real time    0.01
    --------------------------------------------
      LOOP:  cpu time   58.53: real time   58.54

 eigenvalue-minimisations  :  7258
 total energy-change (2. order) : 0.4347203E-07  (-0.1240532E-08)
 number of electron      64.0000003 magnetization 
 augmentation part       30.6892503 magnetization 

 Broyden mixing:
  rms(total) = 0.28676E-04    rms(broyden)= 0.24509E-04
  rms(prec ) = 0.45416E-04
  weight for this iteration     100.00
  WARNING: grid for Broyden might be to small

 eigenvalues of (default mixing * dielectric matrix)
  average eigenvalue GAMMA=   1.2728
  2.5844  2.5661  2.3668  1.4534  0.9855  0.9855  0.9658  0.2808  0.2669  0.2730

 Free energy of the ion-electron system (eV)
  ---------------------------------------------------
  alpha Z        PSCENC =       538.72185181
  Ewald energy   TEWEN  =     -8607.74679165
  -1/2 Hartree   DENC   =     -2165.22358065
  -exchange  EXHF       =         0.00000000
  -V(xc)+E(xc)   XCENC  =       327.98330518
  PAW double counting   =      9567.11623653    -9461.89451390
  entropy T*S    EENTRO =        -0.05216399
  eigenvalues    EBANDS =      -705.93818805
  atomic energy  EATOM  =     10486.18329226
  ---------------------------------------------------
  free energy    TOTEN  =       -20.85055247 eV

  energy without entropy =      -20.79838848  energy(sigma->0) =      -20.82447047


--------------------------------------------------------------------------------------------------------




----------------------------------------- Iteration    1(  16)  ---------------------------------------


    POTLOK:  cpu time    0.21: real time    0.21
    SETDIJ:  cpu time    0.32: real time    0.32
     EDDAV:  cpu time   48.48: real time   48.49
       DOS:  cpu time    0.03: real time    0.03
    CHARGE:  cpu time    8.67: real time    8.67
    MIXING:  cpu time    0.01: real time    0.01
    --------------------------------------------
      LOOP:  cpu time   57.72: real time   69.43

 eigenvalue-minimisations  :  7036
 total energy-change (2. order) :-0.8622192E-07  (-0.2890303E-09)
 number of electron      64.0000003 magnetization 
 augmentation part       30.6892560 magnetization 

 Broyden mixing:
  rms(total) = 0.16173E-04    rms(broyden)= 0.63261E-05
  rms(prec ) = 0.11051E-04
  weight for this iteration     100.00
  WARNING: grid for Broyden might be to small

 eigenvalues of (default mixing * dielectric matrix)
  average eigenvalue GAMMA=   1.2834
  2.6805  2.6805  2.4733  1.5102  0.9946  0.9946  0.9818  0.9818  0.2806  0.2669
  0.2727

 Free energy of the ion-electron system (eV)
  ---------------------------------------------------
  alpha Z        PSCENC =       538.72185181
  Ewald energy   TEWEN  =     -8607.74679165
  -1/2 Hartree   DENC   =     -2165.22079518
  -exchange  EXHF       =         0.00000000
  -V(xc)+E(xc)   XCENC  =       327.98318712
  PAW double counting   =      9567.04804108    -9461.82858644
  entropy T*S    EENTRO =        -0.05216400
  eigenvalues    EBANDS =      -705.93858755
  atomic energy  EATOM  =     10486.18329226
  ---------------------------------------------------
  free energy    TOTEN  =       -20.85055255 eV

  energy without entropy =      -20.79838855  energy(sigma->0) =      -20.82447055


--------------------------------------------------------------------------------------------------------




----------------------------------------- Iteration    1(  17)  ---------------------------------------


    POTLOK:  cpu time    0.21: real time    0.21
    SETDIJ:  cpu time    0.32: real time    0.32
     EDDAV:  cpu time   48.27: real time   48.27
       DOS:  cpu time    0.03: real time    0.03
    CHARGE:  cpu time    8.67: real time    8.67
    MIXING:  cpu time    0.01: real time    0.01
    --------------------------------------------
      LOOP:  cpu time   57.50: real time   57.51

 eigenvalue-minimisations  :  6970
 total energy-change (2. order) :-0.2935667E-07  (-0.3118731E-10)
 number of electron      64.0000003 magnetization 
 augmentation part       30.6892553 magnetization 

 Broyden mixing:
  rms(total) = 0.15075E-04    rms(broyden)= 0.23912E-05
  rms(prec ) = 0.33151E-05
  weight for this iteration     100.00
  WARNING: grid for Broyden might be to small

 eigenvalues of (default mixing * dielectric matrix)
  average eigenvalue GAMMA=   1.3345
  2.9062  2.6904  2.4475  1.7398  1.4926  0.9918  0.9918  0.9666  0.9666  0.2807
  0.2669  0.2727

 Free energy of the ion-electron system (eV)
  ---------------------------------------------------
  alpha Z        PSCENC =       538.72185181
  Ewald energy   TEWEN  =     -8607.74679165
  -1/2 Hartree   DENC   =     -2165.22021687
  -exchange  EXHF       =         0.00000000
  -V(xc)+E(xc)   XCENC  =       327.98316247
  PAW double counting   =      9567.03454539    -9461.81559299
  entropy T*S    EENTRO =        -0.05216400
  eigenvalues    EBANDS =      -705.93863900
  atomic energy  EATOM  =     10486.18329226
  ---------------------------------------------------
  free energy    TOTEN  =       -20.85055258 eV

  energy without entropy =      -20.79838858  energy(sigma->0) =      -20.82447058


--------------------------------------------------------------------------------------------------------




----------------------------------------- Iteration    1(  18)  ---------------------------------------


    POTLOK:  cpu time    0.21: real time    0.21
    SETDIJ:  cpu time    0.32: real time    0.32
     EDDAV:  cpu time   47.94: real time   47.94
       DOS:  cpu time    0.03: real time    0.03
    --------------------------------------------
      LOOP:  cpu time   48.50: real time   48.52

 eigenvalue-minimisations  :  6886
 total energy-change (2. order) : 0.1093213E-08  (-0.7436401E-11)
 number of electron      64.0000003 magnetization 
 augmentation part       30.6892553 magnetization 

 Free energy of the ion-electron system (eV)
  ---------------------------------------------------
  alpha Z        PSCENC =       538.72185181
  Ewald energy   TEWEN  =     -8607.74679165
  -1/2 Hartree   DENC   =     -2165.22009349
  -exchange  EXHF       =         0.00000000
  -V(xc)+E(xc)   XCENC  =       327.98315728
  PAW double counting   =      9567.03077685    -9461.81186479
  entropy T*S    EENTRO =        -0.05216400
  eigenvalues    EBANDS =      -705.93871685
  atomic energy  EATOM  =     10486.18329226
  ---------------------------------------------------
  free energy    TOTEN  =       -20.85055258 eV

  energy without entropy =      -20.79838858  energy(sigma->0) =      -20.82447058


--------------------------------------------------------------------------------------------------------




 average (electrostatic) potential at core
  the test charge radii are     1.0504
  (the norm of the test charge is              1.0000)
       1 -74.7045       2 -74.7043       3 -74.7044       4 -74.7044
 
 
 
 E-fermi :   9.1957     XC(G=0): -13.1987     alpha+bet :-16.1055


 k-point   1 :       0.0500    0.0882    0.1029
  band No.  band energies     occupation 
      1     -40.7412      2.00000
      2     -40.7406      2.00000
      3     -40.7378      2.00000
      4     -40.5526      2.00000
      5     -40.5457      2.00000
      6     -40.5428      2.00000
      7     -40.5344      2.00000
      8     -40.5333      2.00000
      9     -40.5329      2.00000
     10     -40.4239      2.00000
     11     -40.4047      2.00000
     12     -40.4007      2.00000
     13       2.4847      2.00000
     14       4.1494      2.00000
     15       4.1536      2.00000
     16       4.1573      2.00000
     17       4.4083      2.00000
     18       4.4157      2.00000
     19       4.4330      2.00000
     20       6.3799      2.00000
     21       6.5475      2.00000
     22       6.5626      2.00000
     23       7.9456      2.00000
     24       8.0120      2.00000
     25       8.8388      2.00000
     26       8.8645      2.00000
     27       8.9133      1.99993
     28       8.9591      1.99918
     29       9.0246      1.98444
     30       9.0375      1.97472
     31       9.3651      0.01657
     32       9.3824      0.00828
     33       9.3951      0.00479
     34      12.4132      0.00000
     35      12.6739      0.00000
     36      13.1865      0.00000
     37      19.8273      0.00000
     38      20.2327      0.00000

 k-point   2 :       0.1500    0.0882    0.6029
  band No.  band energies     occupation 
      1     -40.6861      2.00000
      2     -40.6808      2.00000
      3     -40.6493      2.00000
      4     -40.6165      2.00000
      5     -40.6026      2.00000
      6     -40.5576      2.00000
      7     -40.5195      2.00000
      8     -40.5179      2.00000
      9     -40.4991      2.00000
     10     -40.4855      2.00000
     11     -40.4516      2.00000
     12     -40.4383      2.00000
     13       4.0956      2.00000
     14       4.7377      2.00000
     15       4.9986      2.00000
     16       5.0577      2.00000
     17       5.1550      2.00000
     18       5.4208      2.00000
     19       5.4593      2.00000
     20       5.7405      2.00000
     21       6.4895      2.00000
     22       6.5926      2.00000
     23       6.8413      2.00000
     24       7.0850      2.00000
     25       7.1569      2.00000
     26       7.8559      2.00000
     27       7.8704      2.00000
     28       8.0072      2.00000
     29       8.0643      2.00000
     30       8.4928      2.00000
     31       8.8385      2.00000
     32       9.1912      1.05043
     33       9.1943      1.01549
     34       9.4872      0.00004
     35      15.0250      0.00000
     36      16.1880      0.00000
     37      17.1704      0.00000
     38      18.4002      0.00000

 k-point   3 :       0.2500    0.0882    0.1029
  band No.  band energies     occupation 
      1     -40.7151      2.00000
      2     -40.7132      2.00000
      3     -40.7013      2.00000
      4     -40.5790      2.00000
      5     -40.5756      2.00000
      6     -40.5286      2.00000
      7     -40.5283      2.00000
      8     -40.5263      2.00000
      9     -40.5145      2.00000
     10     -40.4816      2.00000
     11     -40.4207      2.00000
     12     -40.4139      2.00000
     13       3.1429      2.00000
     14       4.4469      2.00000
     15       4.5120      2.00000
     16       4.5212      2.00000
     17       4.6922      2.00000
     18       4.8338      2.00000
     19       4.8484      2.00000
     20       6.1125      2.00000
     21       6.7875      2.00000
     22       6.7973      2.00000
     23       7.6507      2.00000
     24       7.6682      2.00000
     25       7.7163      2.00000
     26       8.1352      2.00000
     27       8.1477      2.00000
     28       8.4914      2.00000
     29       8.5371      2.00000
     30       8.5572      2.00000
     31       9.1817      1.15626
     32       9.3128      0.09757
     33       9.3136      0.09517
     34      10.8432      0.00000
     35      14.1348      0.00000
     36      14.3770      0.00000
     37      19.3153      0.00000
     38      19.5884      0.00000

 k-point   4 :       0.3500    0.0882    0.6029
  band No.  band energies     occupation 
      1     -40.6874      2.00000
      2     -40.6867      2.00000
      3     -40.6771      2.00000
      4     -40.6223      2.00000
      5     -40.6029      2.00000
      6     -40.5574      2.00000
      7     -40.5345      2.00000
      8     -40.4846      2.00000
      9     -40.4824      2.00000
     10     -40.4763      2.00000
     11     -40.4678      2.00000
     12     -40.4303      2.00000
     13       4.6423      2.00000
     14       5.1267      2.00000
     15       5.1363      2.00000
     16       5.2552      2.00000
     17       5.7920      2.00000
     18       5.8245      2.00000
     19       5.8384      2.00000
     20       6.0177      2.00000
     21       6.1474      2.00000
     22       6.1825      2.00000
     23       6.5353      2.00000
     24       6.6326      2.00000
     25       7.1001      2.00000
     26       7.5924      2.00000
     27       7.6457      2.00000
     28       7.7102      2.00000
     29       7.7509      2.00000
     30       8.4963      2.00000
     31       8.6141      2.00000
     32       8.6858      2.00000
     33       9.4277      0.00103
     34      11.1351      0.00000
     35      12.1044      0.00000
     36      14.1307      0.00000
     37      17.8428      0.00000
[...]
     22       6.5725      2.00000
     23       7.9054      2.00000
     24       8.0483      2.00000
     25       8.7739      2.00000
     26       8.7823      2.00000
     27       8.9671      1.99877
     28       8.9934      1.99577
     29       9.0177      1.98817
     30       9.1491      1.49013
     31       9.3019      0.13300
     32       9.4314      0.00086
     33       9.4327      0.00080
     34      11.7700      0.00000
     35      13.1778      0.00000
     36      13.3444      0.00000
     37      19.7035      0.00000
     38      19.8393      0.00000

 k-point 166 :       0.0500    1.0000    0.2500
  band No.  band energies     occupation 
      1     -40.7209      2.00000
      2     -40.7204      2.00000
      3     -40.7011      2.00000
      4     -40.5751      2.00000
      5     -40.5705      2.00000
      6     -40.5381      2.00000
      7     -40.5358      2.00000
      8     -40.5207      2.00000
      9     -40.5185      2.00000
     10     -40.4567      2.00000
     11     -40.4213      2.00000
     12     -40.4171      2.00000
     13       2.9825      2.00000
     14       4.3412      2.00000
     15       4.4538      2.00000
     16       4.4653      2.00000
     17       4.5797      2.00000
     18       4.7216      2.00000
     19       4.7381      2.00000
     20       6.0964      2.00000
     21       6.7952      2.00000
     22       6.7962      2.00000
     23       7.6562      2.00000
     24       7.8221      2.00000
     25       7.8438      2.00000
     26       8.1658      2.00000
     27       8.6062      2.00000
     28       8.6330      2.00000
     29       8.6544      2.00000
     30       8.8618      2.00000
     31       8.9967      1.99511
     32       9.4381      0.00061
     33       9.4411      0.00052
     34      10.1694      0.00000
     35      14.4606      0.00000
     36      14.7235      0.00000
     37      19.4832      0.00000
     38      19.7585      0.00000

 k-point 167 :       0.1500    1.0000    0.7500
  band No.  band energies     occupation 
      1     -40.7125      2.00000
      2     -40.7112      2.00000
      3     -40.6995      2.00000
      4     -40.5936      2.00000
      5     -40.5632      2.00000
      6     -40.5306      2.00000
      7     -40.5277      2.00000
      8     -40.5231      2.00000
      9     -40.5153      2.00000
     10     -40.4821      2.00000
     11     -40.4286      2.00000
     12     -40.4111      2.00000
     13       3.1894      2.00000
     14       4.5000      2.00000
     15       4.5055      2.00000
     16       4.5836      2.00000
     17       4.6989      2.00000
     18       4.7945      2.00000
     19       4.9190      2.00000
     20       6.0943      2.00000
     21       6.8017      2.00000
     22       6.8068      2.00000
     23       7.5424      2.00000
     24       7.6723      2.00000
     25       7.6843      2.00000
     26       7.9034      2.00000
     27       8.1830      2.00000
     28       8.4954      2.00000
     29       8.6683      2.00000
     30       8.8584      2.00000
     31       8.8782      1.99999
     32       9.2267      0.66096
     33       9.2423      0.50929
     34      10.9983      0.00000
     35      13.3374      0.00000
     36      15.2657      0.00000
     37      18.4895      0.00000
     38      19.7988      0.00000

 k-point 168 :       0.2500    1.0000    0.2500
  band No.  band energies     occupation 
      1     -40.6954      2.00000
      2     -40.6943      2.00000
      3     -40.6927      2.00000
      4     -40.6179      2.00000
      5     -40.5504      2.00000
      6     -40.5483      2.00000
      7     -40.5200      2.00000
      8     -40.5112      2.00000
      9     -40.5098      2.00000
     10     -40.5092      2.00000
     11     -40.4426      2.00000
     12     -40.4103      2.00000
     13       3.5816      2.00000
     14       4.6522      2.00000
     15       4.7926      2.00000
     16       4.7935      2.00000
     17       4.9318      2.00000
     18       4.9381      2.00000
     19       5.2088      2.00000
     20       6.0247      2.00000
     21       6.8223      2.00000
     22       6.9055      2.00000
     23       7.1332      2.00000
     24       7.1403      2.00000
     25       7.3055      2.00000
     26       7.6058      2.00000
     27       8.2813      2.00000
     28       8.3599      2.00000
     29       8.6076      2.00000
     30       8.6117      2.00000
     31       8.8457      2.00000
     32       8.8595      2.00000
     33       9.0365      1.97556
     34      11.9645      0.00000
     35      11.9722      0.00000
     36      16.1810      0.00000
     37      17.1572      0.00000
     38      19.7867      0.00000

 k-point 169 :       0.3500    1.0000    0.7500
  band No.  band energies     occupation 
      1     -40.6873      2.00000
      2     -40.6713      2.00000
      3     -40.6672      2.00000
      4     -40.6389      2.00000
      5     -40.5752      2.00000
      6     -40.5590      2.00000
      7     -40.5303      2.00000
      8     -40.5049      2.00000
      9     -40.5029      2.00000
     10     -40.4856      2.00000
     11     -40.4617      2.00000
     12     -40.4212      2.00000
     13       4.1069      2.00000
     14       4.9015      2.00000
     15       5.0113      2.00000
     16       5.1321      2.00000
     17       5.1545      2.00000
     18       5.2804      2.00000
     19       5.5284      2.00000
     20       5.8556      2.00000
     21       6.4580      2.00000
     22       6.7253      2.00000
     23       6.7820      2.00000
     24       6.7951      2.00000
     25       7.1407      2.00000
     26       7.5471      2.00000
     27       8.0184      2.00000
     28       8.2612      2.00000
     29       8.3957      2.00000
     30       8.4031      2.00000
     31       8.7020      2.00000
     32       8.8477      2.00000
     33       8.9165      1.99992
     34      10.7484      0.00000
     35      12.9523      0.00000
     36      15.9698      0.00000
     37      17.3076      0.00000
     38      19.8761      0.00000

 k-point 170 :       0.4500    1.0000    0.2500
  band No.  band energies     occupation 
      1     -40.6746      2.00000
      2     -40.6597      2.00000
      3     -40.6380      2.00000
      4     -40.6372      2.00000
      5     -40.6053      2.00000
      6     -40.6011      2.00000
      7     -40.5080      2.00000
      8     -40.5016      2.00000
      9     -40.4989      2.00000
     10     -40.4842      2.00000
     11     -40.4616      2.00000
     12     -40.4375      2.00000
     13       4.6598      2.00000
     14       5.0278      2.00000
     15       5.2369      2.00000
     16       5.3690      2.00000
     17       5.4185      2.00000
     18       5.6218      2.00000
     19       5.7238      2.00000
     20       5.7445      2.00000
     21       5.9354      2.00000
     22       6.2426      2.00000
     23       6.4962      2.00000
     24       6.6005      2.00000
     25       7.4929      2.00000
     26       7.7264      2.00000
     27       7.8510      2.00000
     28       7.9249      2.00000
     29       7.9507      2.00000
     30       8.0702      2.00000
     31       8.8472      2.00000
     32       8.8662      2.00000
     33       9.1702      1.28150
     34       9.8218      0.00000
     35      13.9284      0.00000
     36      14.9147      0.00000
     37      18.5397      0.00000
     38      19.8048      0.00000


--------------------------------------------------------------------------------------------------------


 soft charge-density along one line, spin component           1
         0         1         2         3         4         5         6         7         8         9
x    33.3107    0.0000   -0.0007   -0.0845    5.5098   -0.0441    0.0001    0.0025   -1.0557    0.0169
x     0.0004    0.0109   -0.1345    0.0032    0.0000    0.0004    0.0026   -0.0001   -0.0000   -0.0000
x     0.0003   -0.0000   -0.0000   -0.0000   -0.0000    0.0000    0.0000    0.0000   -0.0000    0.0000
x     0.0000    0.0000
y    33.3107    0.0000   -0.0000    0.0000    5.5123   -0.0000   -0.0000    0.0000   -1.0566   -0.0000
y    -0.0000    0.0000   -0.1348    0.0000   -0.0000   -0.0000    0.0026   -0.0000    0.0000    0.0000
y     0.0003   -0.0000    0.0000   -0.0000   -0.0000    0.0000    0.0000    0.0000   -0.0000    0.0000
y     0.0000    0.0000
z    33.3107    0.0000   -0.0000   -0.0000    5.5125    0.0000   -0.0000    0.0000   -1.0551    0.0000
z    -0.0000    0.0000   -0.1343    0.0000   -0.0000    0.0000    0.0026   -0.0000    0.0000    0.0000
z     0.0003   -0.0000    0.0000    0.0000   -0.0000    0.0000    0.0000   -0.0000   -0.0000    0.0000
z     0.0000    0.0000
 total charge-density along one line
x    64.0000    0.0000   -0.0015   -0.1937   24.7741   -0.1982   -0.0029   -0.1205    2.7592   -0.0441
x    -0.0001   -0.0034   -0.1876    0.0045    0.0000    0.0008    0.0442   -0.0014   -0.0000   -0.0004
x    -0.0109    0.0004    0.0000    0.0001    0.0044   -0.0002   -0.0000   -0.0000   -0.0020    0.0001
x    -0.0000   -0.0000    0.0010   -0.0001    0.0000    0.0000   -0.0005    0.0000   -0.0000   -0.0000
x     0.0002   -0.0000    0.0000    0.0000   -0.0001    0.0000   -0.0000   -0.0000    0.0001   -0.0000
x     0.0000    0.0000   -0.0000    0.0000   -0.0000   -0.0000    0.0000   -0.0000    0.0000    0.0000
x     0.0000    0.0000
y    64.0000    0.0000   -0.0000    0.0000   24.7790   -0.0000   -0.0000    0.0000    2.7599   -0.0000
y    -0.0000   -0.0000   -0.1883    0.0000   -0.0000   -0.0000    0.0442   -0.0000    0.0000    0.0000
y    -0.0109   -0.0000   -0.0000   -0.0000    0.0044   -0.0000   -0.0000    0.0000   -0.0020    0.0000
y    -0.0000   -0.0000    0.0010    0.0000   -0.0000    0.0000   -0.0005   -0.0000    0.0000   -0.0000
y     0.0003    0.0000    0.0000    0.0000   -0.0001   -0.0000    0.0000   -0.0000    0.0001   -0.0000
y     0.0000    0.0000   -0.0000    0.0000    0.0000   -0.0000    0.0000   -0.0000   -0.0000   -0.0000
y     0.0000   -0.0000
z    64.0000    0.0000   -0.0000   -0.0000   24.7781   -0.0000   -0.0000    0.0000    2.7607   -0.0000
z    -0.0000    0.0000   -0.1870    0.0000   -0.0000   -0.0000    0.0445   -0.0000    0.0000    0.0000
z    -0.0110   -0.0000   -0.0000   -0.0000    0.0044   -0.0000   -0.0000    0.0000   -0.0020    0.0000
z    -0.0000   -0.0000    0.0010    0.0000   -0.0000    0.0000   -0.0005   -0.0000    0.0000   -0.0000
z     0.0003    0.0000    0.0000    0.0000   -0.0001   -0.0000    0.0000   -0.0000    0.0001    0.0000
z     0.0000    0.0000   -0.0000    0.0000    0.0000   -0.0000    0.0000   -0.0000   -0.0000   -0.0000
z     0.0000   -0.0000
 
 pseudopotential strength for first ion, spin component:           1
-37.308  -0.000   0.000   8.285   0.000  -0.000  -0.000  -0.000
 -0.000 -37.307  -0.000   0.000   8.285   0.000  -0.000   0.000
  0.000  -0.000 -37.308  -0.000   0.000   8.285   0.000  -0.000
  8.285   0.000  -0.000   7.864  -0.000   0.000   0.000   0.000
  0.000   8.285   0.000  -0.000   7.864  -0.000   0.000  -0.000
 -0.000   0.000   8.285   0.000  -0.000   7.864  -0.000   0.000
 -0.000  -0.000   0.000   0.000   0.000  -0.000  -2.351  -0.000
 -0.000   0.000  -0.000   0.000  -0.000   0.000  -0.000  -2.351
 -0.000  -0.000   0.000   0.000   0.000  -0.000  -0.000   0.000
 -0.000  -0.000  -0.000   0.000   0.000   0.000  -0.000   0.000
 -0.000  -0.000  -0.000   0.000   0.000   0.000   0.000   0.000
 -0.000  -0.000   0.000   0.000   0.000  -0.000  -2.007  -0.000
 -0.000   0.000  -0.000   0.000  -0.000   0.000  -0.000  -2.007
 -0.000  -0.000   0.000   0.000   0.000  -0.000  -0.000   0.000
 -0.000  -0.000  -0.000   0.000   0.000   0.000  -0.000   0.000
 -0.000  -0.000  -0.000   0.000   0.000   0.000   0.000   0.000
 -0.000   0.000   0.000   0.000  -0.000   0.000  -0.000   0.000
 -0.000   0.000   0.001   0.000  -0.000   0.000  -0.000   0.000
 total augmentation occupancy for first ion, spin component:           1
  1.998  -0.000  -0.000  -0.014  -0.000   0.000   0.000  -0.000  -0.000  -0.000  -0.000  -0.000   0.000   0.000   0.000   0.000
 -0.000   1.998   0.000  -0.000  -0.014  -0.000  -0.000   0.000  -0.000   0.000  -0.000  -0.000  -0.000   0.000  -0.000  -0.000
 -0.000   0.000   1.998   0.000  -0.000  -0.014   0.000  -0.000  -0.000  -0.000   0.000  -0.000  -0.000   0.000   0.000  -0.000
 -0.014  -0.000   0.000   0.102   0.000  -0.000   0.003   0.000   0.000  -0.000   0.000  -0.002   0.000   0.000  -0.000   0.000
 -0.000  -0.014  -0.000   0.000   0.102   0.000   0.000   0.000  -0.000   0.003   0.000   0.000  -0.000   0.000  -0.002   0.000
  0.000  -0.000  -0.014  -0.000   0.000   0.102  -0.000   0.000  -0.001   0.000   0.001  -0.000   0.000   0.001   0.000  -0.001
  0.000  -0.000   0.000   0.003   0.000  -0.000   2.733  -0.000   0.000  -0.000  -0.000  -0.719   0.000  -0.000   0.000  -0.000
 -0.000   0.000  -0.000   0.000   0.000   0.000  -0.000   2.733  -0.000   0.000   0.000   0.000  -0.719   0.000   0.000  -0.000
 -0.000  -0.000  -0.000   0.000  -0.000  -0.001   0.000  -0.000   2.513  -0.000  -0.000  -0.000   0.000  -0.531  -0.000  -0.000
 -0.000   0.000  -0.000  -0.000   0.003   0.000  -0.000   0.000  -0.000   2.733  -0.000   0.000   0.000  -0.000  -0.719  -0.000
 -0.000  -0.000   0.000   0.000   0.000   0.001  -0.000   0.000  -0.000  -0.000   2.512  -0.000  -0.000  -0.000  -0.000  -0.532
 -0.000  -0.000  -0.000  -0.002   0.000  -0.000  -0.719   0.000  -0.000   0.000  -0.000   0.458   0.000   0.000  -0.000   0.000
  0.000  -0.000  -0.000   0.000  -0.000   0.000   0.000  -0.719   0.000   0.000  -0.000   0.000   0.458   0.000   0.000   0.000
  0.000   0.000   0.000   0.000   0.000   0.001  -0.000   0.000  -0.531  -0.000  -0.000   0.000   0.000   0.419  -0.000  -0.000
  0.000  -0.000   0.000  -0.000  -0.002   0.000   0.000   0.000  -0.000  -0.719  -0.000  -0.000   0.000  -0.000   0.458  -0.000
  0.000  -0.000  -0.000   0.000   0.000  -0.001  -0.000  -0.000  -0.000  -0.000  -0.532   0.000   0.000  -0.000  -0.000   0.417
  0.000  -0.000  -0.000  -0.000   0.000   0.003   0.000   0.000   0.000  -0.000   0.000   0.000   0.001  -0.000  -0.001   0.000
 -0.000   0.000   0.000  -0.000   0.000  -0.000  -0.000   0.000  -0.000   0.000  -0.000   0.000  -0.000  -0.000  -0.000   0.000


------------------------ aborting loop because EDIFF is reached ----------------------------------------


    CHARGE:  cpu time    8.66: real time    8.66
    FORLOC:  cpu time    0.01: real time    0.01
    FORNL :  cpu time   10.12: real time   10.12
    STRESS:  cpu time   14.31: real time   14.31
    FORCOR:  cpu time    0.21: real time    0.21
    FORHAR:  cpu time    0.05: real time    0.05
    MIXING:  cpu time    0.01: real time    0.01

  FORCE on cell =-STRESS in cart. coord.  units (eV):
  Direction    XX          YY          ZZ          XY          YZ          ZX
  --------------------------------------------------------------------------------------
  Alpha Z   538.72185   538.72185   538.72185
  Ewald   -2869.33018 -2869.21020 -2869.21020     0.00000    -0.00000     0.00000
  Hartree   721.70222   721.72924   721.78888     0.03630     0.04890    -0.06361
  E(xc)    -362.93280  -362.93383  -362.93420     0.00047     0.00136    -0.00060
  Local     712.67901   712.62963   712.43115    -0.09506    -0.08065     0.16023
  n-local  -112.23286  -112.29157  -112.34756     0.02277     0.07126    -0.02543
  augment   486.30042   486.27763   486.38633     0.01500    -0.02842    -0.03170
  Kinetic   885.95865   885.88759   886.02091     0.01494    -0.01667    -0.02619
  Fock        0.00000     0.00000     0.00000     0.00000     0.00000     0.00000
  -------------------------------------------------------------------------------------
  Total       0.86632     0.81034     0.85716    -0.00557    -0.00424     0.01270
  in kB      22.91956    21.43849    22.67715    -0.14742    -0.11222     0.33597
  external pressure =       22.35 kB  Pullay stress =        0.00 kB


 VOLUME and BASIS-vectors are now :
 -----------------------------------------------------------------------------
  energy-cutoff  :      500.00
  volume of cell :       60.56
      direct lattice vectors                 reciprocal lattice vectors
     3.927000000  0.000000000  0.000000000     0.254647313  0.000000000  0.000000000
     0.000000000  3.927000000  0.000000000     0.000000000  0.254647313  0.000000000
     0.000000000  0.000000000  3.927000000     0.000000000  0.000000000  0.254647313

  length of vectors
     3.927000000  3.927000000  3.927000000     0.254647313  0.254647313  0.254647313


 FORCES acting on ions
    electron-ion (+dipol)            ewald-force                    non-local-force                 convergence-correction
 -----------------------------------------------------------------------------------------------
   0.762E+01 -.186E-03 0.960E-04   -.765E+01 -.181E-13 -.123E-13   -.584E-01 0.119E-02 -.109E-02   0.164E-04 -.316E-06 -.474E-06
   0.272E+01 -.403E-04 -.183E-03   -.273E+01 0.222E-13 0.179E-13   0.806E-02 -.505E-03 0.542E-03   -.921E-06 0.453E-06 0.444E-06
   -.517E+01 0.192E-03 0.656E-04   0.519E+01 -.383E-13 0.131E-13   0.253E-01 -.441E-03 0.577E-04   -.788E-05 -.309E-06 0.387E-06
   -.517E+01 0.343E-04 0.215E-04   0.519E+01 0.403E-13 -.148E-13   0.251E-01 -.245E-03 0.486E-03   -.741E-05 0.174E-06 -.372E-06
 -----------------------------------------------------------------------------------------------
   0.557E-06 -.200E-06 -.396E-06   -.444E-14 0.602E-14 0.389E-14   -.252E-04 -.974E-07 0.308E-06   0.166E-06 0.116E-08 -.148E-07
 
 
 POSITION                                       TOTAL-FORCE (eV/Angst)
 -----------------------------------------------------------------------------------
      0.01000      0.00000      0.00000        -0.089131      0.001005     -0.000990
      0.00000      1.96350      1.96350        -0.001474     -0.000544      0.000359
      1.96350      0.00000      1.96350         0.045505     -0.000250      0.000124
      1.96350      1.96350      0.00000         0.045100     -0.000210      0.000507
 -----------------------------------------------------------------------------------
    total drift:                               -0.000025     -0.000000     -0.000000


--------------------------------------------------------------------------------------------------------



  FREE ENERGIE OF THE ION-ELECTRON SYSTEM (eV)
  ---------------------------------------------------
  free  energy   TOTEN  =       -20.85055258 eV

  energy  without entropy=      -20.79838858  energy(sigma->0) =      -20.82447058
 


--------------------------------------------------------------------------------------------------------


    POTLOK:  cpu time    0.54: real time    0.54


--------------------------------------------------------------------------------------------------------


     LOOP+:  cpu time 1356.91: real time 1368.87
    4ORBIT:  cpu time    0.00: real time    0.00

 total amount of memory used by VASP on root node   247958. kBytes
========================================================================

   base      :      30000. kBytes
   nonl-proj :      38141. kBytes
   grid      :      11692. kBytes
   one-center:         62. kBytes
   wavefun   :     168063. kBytes
 
  
  
 General timing and accounting informations for this job:
 ========================================================
  
                  Total CPU time used (sec):     1360.220
                            User time (sec):     1359.899
                          System time (sec):        0.321
                         Elapsed time (sec):     1372.541
  
                   Maximum memory used (kb):      600368.
                   Average memory used (kb):           0.
  
                          Minor page faults:       160530
                          Major page faults:           12
                 Voluntary context switches:          331
