<?xml version="1.0" encoding="ISO-8859-1"?>
<modeling>
 <generator>
  <i name="program" type="string">vasp </i>
  <i name="version" type="string">5.3.3  </i>
  <i name="subversion" type="string">18Dez12 (build Jun 21 2016 14:15:03) complex                          serial </i>
  <i name="platform" type="string">LinuxIFC </i>
  <i name="date" type="string">2017 10 11 </i>
  <i name="time" type="string">15:33:49 </i>
 </generator>
 <incar>
  <i type="string" name="PREC">a</i>
  <i type="int" name="IALGO">    38</i>
  <i type="logical" name="ADDGRID"> T  </i>
  <i type="int" name="IBRION">    -1</i>
  <i name="EDIFF">      0.00000001</i>
  <i type="int" name="ISYM">     0</i>
  <i name="ENCUT">    500.00000000</i>
  <i type="logical" name="LREAL"> F  </i>
  <i type="int" name="ISMEAR">     0</i>
  <i name="SIGMA">      0.10000000</i>
  <i type="logical" name="LWAVE"> F  </i>
 </incar>
 <kpoints>
  <varray name="kpointlist" >
   <v>       0.09574468       0.91489362       0.89893617 </v>
   <v>       0.11702128       0.34042553       0.65425532 </v>
   <v>       0.13829787       0.76595745       0.40957447 </v>
   <v>       0.15957447       0.19148936       0.16489362 </v>
   <v>       0.18085106       0.61702128       0.92021277 </v>
   <v>       0.20212766       0.04255319       0.67553191 </v>
   <v>       0.22340426       0.46808511       0.43085106 </v>
   <v>       0.24468085       0.89361702       0.18617021 </v>
   <v>       0.26595745       0.31914894       0.94148936 </v>
   <v>       0.28723404       0.74468085       0.69680851 </v>
   <v>       0.30851064       0.17021277       0.45212766 </v>
   <v>       0.32978723       0.59574468       0.20744681 </v>
   <v>       0.35106383       0.02127660       0.96276596 </v>
   <v>       0.37234043       0.44680851       0.71808511 </v>
   <v>       0.39361702       0.87234043       0.47340426 </v>
   <v>       0.41489362       0.29787234       0.22872340 </v>
   <v>       0.43617021       0.72340426       0.98404255 </v>
   <v>       0.45744681       0.14893617       0.73936170 </v>
   <v>       0.47872340       0.57446809       0.49468085 </v>
   <v>       0.50000000       1.00000000       0.25000000 </v>
   <v>       0.52127660       0.42553191       0.00531915 </v>
   <v>       0.54255319       0.85106383       0.76063830 </v>
   <v>       0.56382979       0.27659574       0.51595745 </v>
   <v>       0.58510638       0.70212766       0.27127660 </v>
   <v>       0.60638298       0.12765957       0.02659574 </v>
   <v>       0.62765957       0.55319149       0.78191489 </v>
   <v>       0.64893617       0.97872340       0.53723404 </v>
   <v>       0.67021277       0.40425532       0.29255319 </v>
   <v>       0.69148936       0.82978723       0.04787234 </v>
   <v>       0.71276596       0.25531915       0.80319149 </v>
   <v>       0.73404255       0.68085106       0.55851064 </v>
   <v>       0.75531915       0.10638298       0.31382979 </v>
   <v>       0.77659574       0.53191489       0.06914894 </v>
   <v>       0.79787234       0.95744681       0.82446809 </v>
   <v>       0.81914894       0.38297872       0.57978723 </v>
   <v>       0.84042553       0.80851064       0.33510638 </v>
   <v>       0.86170213       0.23404255       0.09042553 </v>
   <v>       0.88297872       0.65957447       0.84574468 </v>
   <v>       0.90425532       0.08510638       0.60106383 </v>
   <v>       0.92553191       0.51063830       0.35638298 </v>
   <v>       0.94680851       0.93617021       0.11170213 </v>
   <v>       0.96808511       0.36170213       0.86702128 </v>
   <v>       0.98936170       0.78723404       0.62234043 </v>
   <v>       0.92553191       0.51063830       0.85638298 </v>
   <v>       0.94680851       0.93617021       0.61170213 </v>
   <v>       0.96808511       0.36170213       0.36702128 </v>
   <v>       0.98936170       0.78723404       0.12234043 </v>
  </varray>
  <varray name="weights" >
   <v>       0.02127660 </v>
   <v>       0.02127660 </v>
   <v>       0.02127660 </v>
   <v>       0.02127660 </v>
   <v>       0.02127660 </v>
   <v>       0.02127660 </v>
   <v>       0.02127660 </v>
   <v>       0.02127660 </v>
   <v>       0.02127660 </v>
   <v>       0.02127660 </v>
   <v>       0.02127660 </v>
   <v>       0.02127660 </v>
   <v>       0.02127660 </v>
   <v>       0.02127660 </v>
   <v>       0.02127660 </v>
   <v>       0.02127660 </v>
   <v>       0.02127660 </v>
   <v>       0.02127660 </v>
   <v>       0.02127660 </v>
   <v>       0.02127660 </v>
   <v>       0.02127660 </v>
   <v>       0.02127660 </v>
   <v>       0.02127660 </v>
   <v>       0.02127660 </v>
   <v>       0.02127660 </v>
   <v>       0.02127660 </v>
   <v>       0.02127660 </v>
   <v>       0.02127660 </v>
   <v>       0.02127660 </v>
   <v>       0.02127660 </v>
   <v>       0.02127660 </v>
   <v>       0.02127660 </v>
   <v>       0.02127660 </v>
   <v>       0.02127660 </v>
   <v>       0.02127660 </v>
   <v>       0.02127660 </v>
   <v>       0.02127660 </v>
   <v>       0.02127660 </v>
   <v>       0.02127660 </v>
   <v>       0.02127660 </v>
   <v>       0.02127660 </v>
   <v>       0.02127660 </v>
   <v>       0.02127660 </v>
   <v>       0.02127660 </v>
   <v>       0.02127660 </v>
   <v>       0.02127660 </v>
   <v>       0.02127660 </v>
  </varray>
 </kpoints>
 <parameters>
  <separator name="general" >
   <i type="string" name="SYSTEM">unknown system</i>
   <i type="logical" name="LCOMPAT"> F  </i>
  </separator>
  <separator name="electronic" >
   <i type="string" name="PREC">a</i>
   <i name="ENMAX">    500.00000000</i>
   <i name="ENAUG">    473.06700000</i>
   <i name="EDIFF">      0.00000001</i>
   <i type="int" name="IALGO">    38</i>
   <i type="int" name="IWAVPR">     0</i>
   <i type="int" name="NBANDS">   153</i>
   <i name="NELECT">    256.00000000</i>
   <i type="int" name="TURBO">     0</i>
   <i type="int" name="IRESTART">     0</i>
   <i type="int" name="NREBOOT">     0</i>
   <i type="int" name="NMIN">     0</i>
   <i name="EREF">      0.00000000</i>
   <separator name="electronic smearing" >
    <i type="int" name="ISMEAR">     0</i>
    <i name="SIGMA">      0.10000000</i>
    <i name="KSPACING">      0.50000000</i>
    <i type="logical" name="KGAMMA"> T  </i>
   </separator>
   <separator name="electronic projectors" >
    <i type="logical" name="LREAL"> F  </i>
    <v name="ROPT">      0.00000000</v>
    <i type="int" name="LMAXPAW">  -100</i>
    <i type="int" name="LMAXMIX">     2</i>
    <i type="logical" name="NLSPLINE"> F  </i>
   </separator>
   <separator name="electronic startup" >
    <i type="int" name="ISTART">     0</i>
    <i type="int" name="ICHARG">     2</i>
    <i type="int" name="INIWAV">     1</i>
   </separator>
   <separator name="electronic spin" >
    <i type="int" name="ISPIN">     1</i>
    <i type="logical" name="LNONCOLLINEAR"> F  </i>
    <v name="MAGMOM">      1.00000000      1.00000000      1.00000000      1.00000000      1.00000000      1.00000000      1.00000000      1.00000000      1.00000000      1.00000000      1.00000000      1.00000000      1.00000000      1.00000000      1.00000000      1.00000000</v>
    <i name="NUPDOWN">     -1.00000000</i>
    <i type="logical" name="LSORBIT"> F  </i>
    <v name="SAXIS">      0.00000000      0.00000000      1.00000000</v>
    <i type="logical" name="LSPIRAL"> F  </i>
    <v name="QSPIRAL">      0.00000000      0.00000000      0.00000000</v>
    <i type="logical" name="LZEROZ"> F  </i>
   </separator>
   <separator name="electronic exchange-correlation" >
    <i type="logical" name="LASPH"> F  </i>
    <i type="logical" name="LMETAGGA"> F  </i>
   </separator>
   <separator name="electronic convergence" >
    <i type="int" name="NELM">    60</i>
    <i type="int" name="NELMDL">     0</i>
    <i type="int" name="NELMIN">     2</i>
    <i name="ENINI">    500.00000000</i>
    <separator name="electronic convergence detail" >
     <i type="logical" name="LDIAG"> T  </i>
     <i type="logical" name="LSUBROT"> T  </i>
     <i name="WEIMIN">      0.00000000</i>
     <i name="EBREAK">      0.00000000</i>
     <i name="DEPER">      0.30000000</i>
     <i type="int" name="NRMM">     4</i>
     <i name="TIME">      0.40000000</i>
    </separator>
   </separator>
   <separator name="electronic mixer" >
    <i name="AMIX">      0.40000000</i>
    <i name="BMIX">      1.00000000</i>
    <i name="AMIN">      0.10000000</i>
    <i name="AMIX_MAG">      1.60000000</i>
    <i name="BMIX_MAG">      1.00000000</i>
    <separator name="electronic mixer details" >
     <i type="int" name="IMIX">     4</i>
     <i type="int" name="MAXMIX">   -45</i>
     <i name="WC">    100.00000000</i>
     <i type="int" name="INIMIX">     1</i>
     <i type="int" name="MIXPRE">     1</i>
     <i type="int" name="MREMOVE">     5</i>
    </separator>
   </separator>
   <separator name="electronic dipolcorrection" >
    <i type="logical" name="LDIPOL"> F  </i>
    <i type="logical" name="LMONO"> F  </i>
    <i type="int" name="IDIPOL">     0</i>
    <i name="EPSILON">      1.00000000</i>
    <v name="DIPOL">   -100.00000000   -100.00000000   -100.00000000</v>
    <i name="EFIELD">      0.00000000</i>
   </separator>
  </separator>
  <separator name="grids" >
   <i type="int" name="NGX">    70</i>
   <i type="int" name="NGY">    70</i>
   <i type="int" name="NGZ">    70</i>
   <i type="int" name="NGXF">   140</i>
   <i type="int" name="NGYF">   140</i>
   <i type="int" name="NGZF">   140</i>
   <i type="logical" name="ADDGRID"> T  </i>
  </separator>
  <separator name="ionic" >
   <i type="int" name="NSW">     0</i>
   <i type="int" name="IBRION">    -1</i>
   <i type="int" name="ISIF">     2</i>
   <i name="PSTRESS">      0.00000000</i>
   <i name="EDIFFG">      0.00000010</i>
   <i type="int" name="NFREE">     0</i>
   <i name="POTIM">      0.50000000</i>
   <i name="SMASS">     -3.00000000</i>
   <i name="SCALEE">      1.00000000</i>
  </separator>
  <separator name="ionic md" >
   <i name="TEBEG">      0.00010000</i>
   <i name="TEEND">      0.00010000</i>
   <i type="int" name="NBLOCK">     1</i>
   <i type="int" name="KBLOCK">     1</i>
   <i type="int" name="NPACO">   256</i>
   <i name="APACO">     16.00000000</i>
  </separator>
  <separator name="symmetry" >
   <i type="int" name="ISYM">     0</i>
   <i name="SYMPREC">      0.00001000</i>
  </separator>
  <separator name="dos" >
   <i type="logical" name="LORBIT"> F  </i>
   <v name="RWIGS">     -1.00000000</v>
   <i type="int" name="NEDOS">   301</i>
   <i name="EMIN">     10.00000000</i>
   <i name="EMAX">    -10.00000000</i>
   <i name="EFERMI">      0.00000000</i>
  </separator>
  <separator name="writing" >
   <i type="int" name="NWRITE">     2</i>
   <i type="logical" name="LWAVE"> F  </i>
   <i type="logical" name="LCHARG"> T  </i>
   <i type="logical" name="LPARD"> F  </i>
   <i type="logical" name="LVTOT"> F  </i>
   <i type="logical" name="LVHAR"> F  </i>
   <i type="logical" name="LELF"> F  </i>
   <i type="logical" name="LOPTICS"> F  </i>
   <v name="STM">      0.00000000      0.00000000      0.00000000      0.00000000      0.00000000      0.00000000      0.00000000</v>
  </separator>
  <separator name="performance" >
   <i type="int" name="NPAR">     1</i>
   <i type="int" name="NSIM">     4</i>
   <i type="int" name="NBLK">    -1</i>
   <i type="logical" name="LPLANE"> T  </i>
   <i type="logical" name="LSCALAPACK"> F  </i>
   <i type="logical" name="LSCAAWARE"> F  </i>
   <i type="logical" name="LSCALU"> F  </i>
   <i type="logical" name="LASYNC"> F  </i>
   <i type="logical" name="LORBITALREAL"> F  </i>
  </separator>
  <separator name="miscellaneous" >
   <i type="int" name="IDIOT">     3</i>
   <i type="logical" name="LMUSIC"> F  </i>
   <v name="POMASS">    106.42000000</v>
   <v name="DARWINR">      0.00000000</v>
   <v name="DARWINV">      1.00000000</v>
   <i type="logical" name="LCORR"> T  </i>
  </separator>
  <i type="logical" name="GGA_COMPAT"> T  </i>
  <i type="logical" name="LBERRY"> F  </i>
  <i type="int" name="ICORELEVEL">     0</i>
  <i type="logical" name="LDAU"> F  </i>
  <i type="int" name="I_CONSTRAINED_M">     0</i>
  <separator name="electronic exchange-correlation" >
   <i type="string" name="GGA">--</i>
   <i type="int" name="VOSKOWN">     0</i>
   <i type="logical" name="LHFCALC"> F  </i>
   <i type="string" name="PRECFOCK"></i>
   <i type="logical" name="LSYMGRAD"> F  </i>
   <i type="logical" name="LHFONE"> F  </i>
   <i type="logical" name="LRHFCALC"> F  </i>
   <i type="logical" name="LTHOMAS"> F  </i>
   <i type="logical" name="LMODELHF"> F  </i>
   <i name="ENCUT4O">     -1.00000000</i>
   <i type="int" name="EXXOEP">     0</i>
   <i type="int" name="FOURORBIT">     0</i>
   <i name="AEXX">      0.00000000</i>
   <i name="HFALPHA">      0.00000000</i>
   <i name="MCALPHA">      0.00000000</i>
   <i name="ALDAX">      1.00000000</i>
   <i name="AGGAX">      1.00000000</i>
   <i name="ALDAC">      1.00000000</i>
   <i name="AGGAC">      1.00000000</i>
   <i type="int" name="NKREDX">     1</i>
   <i type="int" name="NKREDY">     1</i>
   <i type="int" name="NKREDZ">     1</i>
   <i type="logical" name="SHIFTRED"> F  </i>
   <i type="logical" name="ODDONLY"> F  </i>
   <i type="logical" name="EVENONLY"> F  </i>
   <i type="int" name="LMAXFOCK">     0</i>
   <i type="int" name="NMAXFOCKAE">     0</i>
   <i type="logical" name="LFOCKAEDFT"> F  </i>
   <i name="HFSCREEN">      0.00000000</i>
   <i name="HFSCREENC">      0.00000000</i>
   <i type="int" name="NBANDSGWLOW">     0</i>
  </separator>
  <separator name="vdW DFT" >
   <i type="logical" name="LUSE_VDW"> F  </i>
   <i name="Zab_VDW">     -0.84910000</i>
   <i name="PARAM1">      0.12340000</i>
   <i name="PARAM2">      1.00000000</i>
   <i name="PARAM3">      0.00000000</i>
  </separator>
  <separator name="model GW" >
   <i type="int" name="MODEL_GW">     0</i>
   <i name="MODEL_EPS0">      9.08393385</i>
   <i name="MODEL_ALPHA">      1.00000000</i>
  </separator>
  <separator name="linear response parameters" >
   <i type="logical" name="LEPSILON"> F  </i>
   <i type="logical" name="LRPA"> F  </i>
   <i type="logical" name="LNABLA"> F  </i>
   <i type="logical" name="LVEL"> F  </i>
   <i type="int" name="KINTER">     0</i>
   <i name="CSHIFT">      0.10000000</i>
   <i name="OMEGAMAX">     -1.00000000</i>
   <i name="DEG_THRESHOLD">      0.00200000</i>
  </separator>
  <separator name="orbital magnetization" >
   <i type="logical" name="NUCIND"> F  </i>
   <v name="MAGPOS">      0.00000000      0.00000000      0.00000000</v>
   <i type="logical" name="LNICSALL"> T  </i>
   <i type="logical" name="ORBITALMAG"> F  </i>
   <i type="logical" name="LMAGBLOCH"> F  </i>
   <i type="logical" name="LCHIMAG"> F  </i>
   <i type="logical" name="LGAUGE"> T  </i>
   <i type="int" name="MAGATOM">     0</i>
   <v name="MAGDIPOL">      0.00000000      0.00000000      0.00000000</v>
   <v name="AVECCONST">      0.00000000      0.00000000      0.00000000</v>
  </separator>
  <separator name="response functions" >
   <i type="logical" name="LADDER"> F  </i>
   <i type="logical" name="LFXC"> F  </i>
   <i type="logical" name="LHARTREE"> T  </i>
   <i type="int" name="IBSE">     0</i>
   <i type="logical" name="LTCTE"> F  </i>
   <i type="logical" name="LTETE"> F  </i>
   <i type="logical" name="LTRIPLET"> F  </i>
   <i type="logical" name="LFXCEPS"> F  </i>
   <i type="logical" name="L2ORDER"> F  </i>
   <i type="logical" name="LUSEW"> F  </i>
   <i name="ENCUTGW">     -2.00000000</i>
   <i name="ENCUTGWSOFT">     -2.00000000</i>
   <i name="ENCUTLF">     -1.00000000</i>
   <i type="int" name="LMAXMP2">    -1</i>
   <i name="SCISSOR">      0.00000000</i>
   <i type="int" name="NOMEGA">     0</i>
   <i type="int" name="NOMEGAR">     0</i>
   <i type="int" name="NBANDSGW">    -1</i>
   <i type="int" name="NBANDSO">    -1</i>
   <i type="int" name="NBANDSV">    -1</i>
   <i type="int" name="NELM">     1</i>
   <i type="int" name="DIM">     3</i>
   <i type="int" name="ANTIRES">     0</i>
   <i name="OMEGAMAX">    -30.00000000</i>
   <i name="OMEGATL">   -200.00000000</i>
   <i type="int" name="OMEGAGRID">     0</i>
   <i name="CSHIFT">     -0.10000000</i>
   <i type="logical" name="SELFENERGY"> F  </i>
   <i type="logical" name="LSPECTRAL"> F  </i>
   <i type="logical" name="ODDONLYGW"> F  </i>
   <i type="logical" name="EVENONLYGW"> F  </i>
   <i type="int" name="NKREDLFX">     1</i>
   <i type="int" name="NKREDLFY">     1</i>
   <i type="int" name="NKREDLFZ">     1</i>
   <i type="int" name="MAXMEM">  1800</i>
   <i type="int" name="TELESCOPE">     0</i>
  </separator>
 </parameters>
 <atominfo>
  <atoms>      16 </atoms>
  <types>       1 </types>
  <array name="atoms" >
   <dimension dim="1">ion</dimension>
   <field type="string">element</field>
   <field type="int">atomtype</field>
   <set>
    <rc><c>Pd</c><c>   1</c></rc>
    <rc><c>Pd</c><c>   1</c></rc>
    <rc><c>Pd</c><c>   1</c></rc>
    <rc><c>Pd</c><c>   1</c></rc>
    <rc><c>Pd</c><c>   1</c></rc>
    <rc><c>Pd</c><c>   1</c></rc>
    <rc><c>Pd</c><c>   1</c></rc>
    <rc><c>Pd</c><c>   1</c></rc>
    <rc><c>Pd</c><c>   1</c></rc>
    <rc><c>Pd</c><c>   1</c></rc>
    <rc><c>Pd</c><c>   1</c></rc>
    <rc><c>Pd</c><c>   1</c></rc>
    <rc><c>Pd</c><c>   1</c></rc>
    <rc><c>Pd</c><c>   1</c></rc>
    <rc><c>Pd</c><c>   1</c></rc>
    <rc><c>Pd</c><c>   1</c></rc>
   </set>
  </array>
  <array name="atomtypes" >
   <dimension dim="1">type</dimension>
   <field type="int">atomspertype</field>
   <field type="string">element</field>
   <field>mass</field>
   <field>valence</field>
   <field type="string">pseudopotential</field>
   <set>
    <rc><c>  16</c><c>Pd</c><c>    106.42000000</c><c>     16.00000000</c><c>  PAW_PBE Pd_pv 28Jan2005               </c></rc>
   </set>
  </array>
 </atominfo>
 <structure name="initialpos" >
  <crystal>
   <varray name="basis" >
    <v>       7.85400000       3.92700000       3.92700000 </v>
    <v>       3.92700000       7.85400000       3.92700000 </v>
    <v>       3.92700000       3.92700000       7.85400000 </v>
   </varray>
   <i name="volume">    242.23823593 </i>
   <varray name="rec_basis" >
    <v>       0.19098549      -0.06366183      -0.06366183 </v>
    <v>      -0.06366183       0.19098549      -0.06366183 </v>
    <v>      -0.06366183      -0.06366183       0.19098549 </v>
   </varray>
  </crystal>
  <varray name="positions" >
   <v>       0.00103959       0.00000000       0.00000000 </v>
   <v>       0.75000000       0.25000000       0.25000000 </v>
   <v>       0.50000000       0.50000000       0.50000000 </v>
   <v>       0.25000000       0.75000000       0.75000000 </v>
   <v>       0.25000000       0.75000000       0.25000000 </v>
   <v>       0.00000000       0.00000000       0.50000000 </v>
   <v>       0.75000000       0.25000000       0.75000000 </v>
   <v>       0.50000000       0.50000000       0.00000000 </v>
   <v>       0.25000000       0.25000000       0.75000000 </v>
   <v>       0.00000000       0.50000000       0.00000000 </v>
   <v>       0.75000000       0.75000000       0.25000000 </v>
   <v>       0.50000000       0.00000000       0.50000000 </v>
   <v>       0.50000000       0.00000000       0.00000000 </v>
   <v>       0.25000000       0.25000000       0.25000000 </v>
   <v>       0.00000000       0.50000000       0.50000000 </v>
   <v>       0.75000000       0.75000000       0.75000000 </v>
  </varray>
 </structure>
 <calculation>
  <scstep>
   <time name="dav"> 1520.47 1520.62</time>
   <time name="total"> 1528.83 1528.98</time>
   <energy>
    <i name="alphaZ">   2154.88740723 </i>
    <i name="ewald"> -34431.08980821 </i>
    <i name="hartreedc">  -8948.42295661 </i>
    <i name="XCdc">   1324.50380981 </i>
    <i name="pawpsdc">  36127.84510360 </i>
    <i name="pawaedc"> -35666.67305960 </i>
    <i name="eentropy">     -0.01950898 </i>
    <i name="bandstr">    971.43587685 </i>
    <i name="atom">  41944.73316905 </i>
    <i name="e_fr_energy">   3477.20003313 </i>
    <i name="e_wo_entrp">   3477.21954211 </i>
    <i name="e_0_energy">   3477.20978762 </i>
   </energy>
  </scstep>
  <scstep>
   <time name="dav"> 1488.53 1488.68</time>
   <time name="total"> 1488.57 1488.72</time>
   <energy>
    <i name="e_fr_energy">    117.86084552 </i>
    <i name="e_wo_entrp">    117.90248900 </i>
    <i name="e_0_energy">    117.88166726 </i>
   </energy>
  </scstep>
  <scstep>
   <time name="dav"> 1522.11 1522.28</time>
   <time name="total"> 1522.15 1522.33</time>
   <energy>
    <i name="e_fr_energy">    -81.71684577 </i>
    <i name="e_wo_entrp">    -81.50677076 </i>
    <i name="e_0_energy">    -81.61180827 </i>
   </energy>
  </scstep>
  <scstep>
   <time name="dav"> 1501.34 1501.49</time>
   <time name="total"> 1501.38 1501.54</time>
   <energy>
    <i name="e_fr_energy">    -87.48992711 </i>
    <i name="e_wo_entrp">    -87.27533807 </i>
    <i name="e_0_energy">    -87.38263259 </i>
   </energy>
  </scstep>
  <scstep>
   <time name="dav"> 1482.18 1482.32</time>
   <time name="total"> 1673.81 1673.98</time>
   <energy>
    <i name="e_fr_energy">    -87.55104489 </i>
    <i name="e_wo_entrp">    -87.33639967 </i>
    <i name="e_0_energy">    -87.44372228 </i>
   </energy>
  </scstep>
  <scstep>
   <time name="dav"> 1481.65 1481.79</time>
   <time name="total"> 1681.86 1683.44</time>
   <energy>
    <i name="e_fr_energy">    -83.44011819 </i>
    <i name="e_wo_entrp">    -83.22930221 </i>
    <i name="e_0_energy">    -83.33471020 </i>
   </energy>
  </scstep>
  <scstep>
   <time name="dav"> 1484.51 1484.65</time>
   <time name="total"> 1684.63 1684.79</time>
   <energy>
    <i name="e_fr_energy">    -83.39210326 </i>
    <i name="e_wo_entrp">    -83.18173963 </i>
    <i name="e_0_energy">    -83.28692144 </i>
   </energy>
  </scstep>
  <scstep>
   <time name="dav"> 1517.60 1517.76</time>
   <time name="total"> 1718.15 1718.35</time>
   <energy>
    <i name="e_fr_energy">    -83.43210233 </i>
    <i name="e_wo_entrp">    -83.22681582 </i>
    <i name="e_0_energy">    -83.32945908 </i>
   </energy>
  </scstep>
  <scstep>
   <time name="dav"> 1522.89 1523.03</time>
   <time name="total"> 1722.84 1723.01</time>
   <energy>
    <i name="e_fr_energy">    -83.37363996 </i>
    <i name="e_wo_entrp">    -83.16426791 </i>
    <i name="e_0_energy">    -83.26895393 </i>
   </energy>
  </scstep>
  <scstep>
   <time name="dav"> 1486.46 1486.60</time>
   <time name="total"> 1686.41 1686.58</time>
   <energy>
    <i name="e_fr_energy">    -83.37347375 </i>
    <i name="e_wo_entrp">    -83.16410205 </i>
    <i name="e_0_energy">    -83.26878790 </i>
   </energy>
  </scstep>
  <scstep>
   <time name="dav"> 1482.11 1482.25</time>
   <time name="total"> 1681.98 1682.15</time>
   <energy>
    <i name="e_fr_energy">    -83.37341750 </i>
    <i name="e_wo_entrp">    -83.16406182 </i>
    <i name="e_0_energy">    -83.26873966 </i>
   </energy>
  </scstep>
  <scstep>
   <time name="dav"> 1499.46 1499.60</time>
   <time name="total"> 1699.30 1699.47</time>
   <energy>
    <i name="e_fr_energy">    -83.37340729 </i>
    <i name="e_wo_entrp">    -83.16405645 </i>
    <i name="e_0_energy">    -83.26873187 </i>
   </energy>
  </scstep>
  <scstep>
   <time name="dav"> 1493.56 1493.71</time>
   <time name="total"> 1693.32 1693.50</time>
   <energy>
    <i name="e_fr_energy">    -83.37340044 </i>
    <i name="e_wo_entrp">    -83.16405220 </i>
    <i name="e_0_energy">    -83.26872632 </i>
   </energy>
  </scstep>
  <scstep>
   <time name="dav"> 1488.16 1488.31</time>
   <time name="total"> 1688.03 1688.21</time>
   <energy>
    <i name="e_fr_energy">    -83.37338067 </i>
    <i name="e_wo_entrp">    -83.16403234 </i>
    <i name="e_0_energy">    -83.26870651 </i>
   </energy>
  </scstep>
  <scstep>
   <time name="dav"> 1482.36 1482.50</time>
   <time name="total"> 1684.53 1684.69</time>
   <energy>
    <i name="e_fr_energy">    -83.37336408 </i>
    <i name="e_wo_entrp">    -83.16401467 </i>
    <i name="e_0_energy">    -83.26868938 </i>
   </energy>
  </scstep>
  <scstep>
   <time name="dav"> 1474.78 1474.91</time>
   <time name="total"> 1671.66 1671.82</time>
   <energy>
    <i name="e_fr_energy">    -83.37336289 </i>
    <i name="e_wo_entrp">    -83.16401307 </i>
    <i name="e_0_energy">    -83.26868798 </i>
   </energy>
  </scstep>
  <scstep>
   <time name="dav"> 1452.37 1452.50</time>
   <time name="total"> 1644.77 1644.92</time>
   <energy>
    <i name="e_fr_energy">    -83.37336173 </i>
    <i name="e_wo_entrp">    -83.16401151 </i>
    <i name="e_0_energy">    -83.26868662 </i>
   </energy>
  </scstep>
  <scstep>
   <time name="dav"> 1415.96 1416.09</time>
   <time name="total"> 1589.00 1589.17</time>
   <energy>
    <i name="e_fr_energy">    -83.37336114 </i>
    <i name="e_wo_entrp">    -83.16401076 </i>
    <i name="e_0_energy">    -83.26868595 </i>
   </energy>
  </scstep>
  <scstep>
   <time name="dav"> 1004.62 1004.71</time>
   <time name="total"> 1177.77 1177.89</time>
   <energy>
    <i name="e_fr_energy">    -83.37336139 </i>
    <i name="e_wo_entrp">    -83.16401092 </i>
    <i name="e_0_energy">    -83.26868615 </i>
   </energy>
  </scstep>
  <scstep>
   <time name="dav">  900.39  900.47</time>
   <time name="total"> 1073.26 1073.41</time>
   <energy>
    <i name="e_fr_energy">    -83.37336148 </i>
    <i name="e_wo_entrp">    -83.16401100 </i>
    <i name="e_0_energy">    -83.26868624 </i>
   </energy>
  </scstep>
  <scstep>
   <time name="dav">  880.14  880.22</time>
   <time name="total"> 1051.58 1051.70</time>
   <energy>
    <i name="e_fr_energy">    -83.37336173 </i>
    <i name="e_wo_entrp">    -83.16401121 </i>
    <i name="e_0_energy">    -83.26868647 </i>
   </energy>
  </scstep>
  <scstep>
   <time name="dav">  885.42  885.49</time>
   <time name="total"> 1058.62 1058.71</time>
   <energy>
    <i name="e_fr_energy">    -83.37336177 </i>
    <i name="e_wo_entrp">    -83.16401125 </i>
    <i name="e_0_energy">    -83.26868651 </i>
   </energy>
  </scstep>
  <scstep>
   <time name="dav">  883.47  883.54</time>
   <time name="total"> 1056.57 1058.55</time>
   <energy>
    <i name="e_fr_energy">    -83.37336175 </i>
    <i name="e_wo_entrp">    -83.16401125 </i>
    <i name="e_0_energy">    -83.26868650 </i>
   </energy>
  </scstep>
  <scstep>
   <time name="dav">  873.65  873.73</time>
   <time name="total">  880.46  880.56</time>
   <energy>
    <i name="alphaZ">   2154.88740723 </i>
    <i name="ewald"> -34431.08980821 </i>
    <i name="hartreedc">  -8661.18773977 </i>
    <i name="XCdc">   1311.94807648 </i>
    <i name="pawpsdc">  38269.02444700 </i>
    <i name="pawaedc"> -37848.04206788 </i>
    <i name="eentropy">     -0.20935050 </i>
    <i name="bandstr">  -2823.43749515 </i>
    <i name="atom">  41944.73316905 </i>
    <i name="e_fr_energy">    -83.37336175 </i>
    <i name="e_wo_entrp">    -83.16401125 </i>
    <i name="e_0_energy">    -83.26868650 </i>
   </energy>
  </scstep>
  <structure>
   <crystal>
    <varray name="basis" >
     <v>       7.85400000       3.92700000       3.92700000 </v>
     <v>       3.92700000       7.85400000       3.92700000 </v>
     <v>       3.92700000       3.92700000       7.85400000 </v>
    </varray>
    <i name="volume">    242.23823593 </i>
    <varray name="rec_basis" >
     <v>       0.19098549      -0.06366183      -0.06366183 </v>
     <v>      -0.06366183       0.19098549      -0.06366183 </v>
     <v>      -0.06366183      -0.06366183       0.19098549 </v>
    </varray>
   </crystal>
   <varray name="positions" >
    <v>       0.00103959       0.00000000       0.00000000 </v>
    <v>       0.75000000       0.25000000       0.25000000 </v>
    <v>       0.50000000       0.50000000       0.50000000 </v>
    <v>       0.25000000       0.75000000       0.75000000 </v>
    <v>       0.25000000       0.75000000       0.25000000 </v>
    <v>       0.00000000       0.00000000       0.50000000 </v>
    <v>       0.75000000       0.25000000       0.75000000 </v>
    <v>       0.50000000       0.50000000       0.00000000 </v>
    <v>       0.25000000       0.25000000       0.75000000 </v>
    <v>       0.00000000       0.50000000       0.00000000 </v>
    <v>       0.75000000       0.75000000       0.25000000 </v>
    <v>       0.50000000       0.00000000       0.50000000 </v>
    <v>       0.50000000       0.00000000       0.00000000 </v>
    <v>       0.25000000       0.25000000       0.25000000 </v>
    <v>       0.00000000       0.50000000       0.50000000 </v>
    <v>       0.75000000       0.75000000       0.75000000 </v>
   </varray>
  </structure>
  <varray name="forces" >
   <v>      -0.07232283      -0.03606003      -0.03553125 </v>
   <v>      -0.00039448       0.00986869       0.00992807 </v>
   <v>      -0.00247391      -0.00206068      -0.00196667 </v>
   <v>      -0.00031066       0.00965003       0.00971289 </v>
   <v>       0.01462955      -0.00014894       0.01504267 </v>
   <v>       0.00037675       0.00051034       0.00108499 </v>
   <v>       0.01409260      -0.00008532       0.01445089 </v>
   <v>       0.00819699      -0.01155621      -0.00120513 </v>
   <v>       0.01452443       0.01514602      -0.00029235 </v>
   <v>       0.00015369       0.00090358       0.00032126 </v>
   <v>       0.01398928       0.01455688      -0.00022453 </v>
   <v>       0.00781269      -0.00140437      -0.01168822 </v>
   <v>       0.00109758       0.00057306       0.00069286 </v>
   <v>       0.00100534       0.00075661       0.00061114 </v>
   <v>      -0.00141350      -0.00142397      -0.00157346 </v>
   <v>       0.00103648       0.00077430       0.00063685 </v>
  </varray>
  <varray name="stress" >
   <v>      22.08219710       0.68101105       0.06914805 </v>
   <v>       0.68097576      22.47536362       0.80646004 </v>
   <v>       0.06913199       0.80646272      23.21207483 </v>
  </varray>
  <energy>
   <i name="e_fr_energy">    -83.37336175 </i>
   <i name="e_wo_entrp">    -83.26868650 </i>
   <i name="e_0_energy">     -0.20935050 </i>
  </energy>
  <time name="totalsc">36381.5536388.99</time>
  <eigenvalues>
   <array>
    <dimension dim="1">band</dimension>
    <dimension dim="2">kpoint</dimension>
    <dimension dim="3">spin</dimension>
    <field>eigene</field>
    <field>occ</field>
    <set>
     <set comment="spin 1">
      <set comment="kpoint 1">
       <r>  -40.7586    1.0000 </r>
       <r>  -40.7580    1.0000 </r>
       <r>  -40.7567    1.0000 </r>
       <r>  -40.7445    1.0000 </r>
       <r>  -40.7377    1.0000 </r>
       <r>  -40.7364    1.0000 </r>
       <r>  -40.7356    1.0000 </r>
       <r>  -40.6986    1.0000 </r>
       <r>  -40.6981    1.0000 </r>
       <r>  -40.6980    1.0000 </r>
       <r>  -40.6943    1.0000 </r>
       <r>  -40.6914    1.0000 </r>
       <r>  -40.6762    1.0000 </r>
       <r>  -40.5957    1.0000 </r>
       <r>  -40.5933    1.0000 </r>
       <r>  -40.5844    1.0000 </r>
       <r>  -40.5800    1.0000 </r>
       <r>  -40.5794    1.0000 </r>
       <r>  -40.5519    1.0000 </r>
       <r>  -40.5489    1.0000 </r>
       <r>  -40.5423    1.0000 </r>
       <r>  -40.5393    1.0000 </r>
       <r>  -40.5350    1.0000 </r>
       <r>  -40.5319    1.0000 </r>
       <r>  -40.5309    1.0000 </r>
       <r>  -40.5305    1.0000 </r>
       <r>  -40.5046    1.0000 </r>
       <r>  -40.5041    1.0000 </r>
       <r>  -40.5034    1.0000 </r>
       <r>  -40.4906    1.0000 </r>
       <r>  -40.4870    1.0000 </r>
       <r>  -40.4869    1.0000 </r>
       <r>  -40.4851    1.0000 </r>
       <r>  -40.4745    1.0000 </r>
       <r>  -40.4697    1.0000 </r>
       <r>  -40.4664    1.0000 </r>
       <r>  -40.4579    1.0000 </r>
       <r>  -40.4559    1.0000 </r>
       <r>  -40.4550    1.0000 </r>
       <r>  -40.4547    1.0000 </r>
       <r>  -40.4492    1.0000 </r>
       <r>  -40.4468    1.0000 </r>
       <r>  -40.4396    1.0000 </r>
       <r>  -40.4324    1.0000 </r>
       <r>  -40.4268    1.0000 </r>
       <r>  -40.4219    1.0000 </r>
       <r>  -40.4034    1.0000 </r>
       <r>  -40.3994    1.0000 </r>
       <r>    2.5216    1.0000 </r>
       <r>    4.0904    1.0000 </r>
       <r>    4.1531    1.0000 </r>
       <r>    4.1649    1.0000 </r>
       <r>    4.1781    1.0000 </r>
       <r>    4.1782    1.0000 </r>
       <r>    4.2143    1.0000 </r>
       <r>    4.2620    1.0000 </r>
       <r>    4.2779    1.0000 </r>
       <r>    4.2987    1.0000 </r>
       <r>    4.4243    1.0000 </r>
       <r>    4.4444    1.0000 </r>
       <r>    4.4515    1.0000 </r>
       <r>    4.7505    1.0000 </r>
       <r>    4.9315    1.0000 </r>
       <r>    4.9351    1.0000 </r>
       <r>    4.9641    1.0000 </r>
       <r>    4.9653    1.0000 </r>
       <r>    4.9763    1.0000 </r>
       <r>    5.4245    1.0000 </r>
       <r>    5.4901    1.0000 </r>
       <r>    5.5007    1.0000 </r>
       <r>    5.6057    1.0000 </r>
       <r>    5.6082    1.0000 </r>
       <r>    5.6625    1.0000 </r>
       <r>    6.0463    1.0000 </r>
       <r>    6.1706    1.0000 </r>
       <r>    6.2645    1.0000 </r>
       <r>    6.2937    1.0000 </r>
       <r>    6.3152    1.0000 </r>
       <r>    6.3668    1.0000 </r>
       <r>    6.4781    1.0000 </r>
       <r>    6.4966    1.0000 </r>
       <r>    6.5000    1.0000 </r>
       <r>    6.5204    1.0000 </r>
       <r>    6.5655    1.0000 </r>
       <r>    6.5740    1.0000 </r>
       <r>    6.5872    1.0000 </r>
       <r>    6.5954    1.0000 </r>
       <r>    6.6059    1.0000 </r>
       <r>    6.6492    1.0000 </r>
       <r>    6.6814    1.0000 </r>
       <r>    6.7579    1.0000 </r>
       <r>    6.7610    1.0000 </r>
       <r>    6.7817    1.0000 </r>
       <r>    6.8666    1.0000 </r>
       <r>    6.9116    1.0000 </r>
       <r>    6.9421    1.0000 </r>
       <r>    7.6344    1.0000 </r>
       <r>    7.6910    1.0000 </r>
       <r>    7.7419    1.0000 </r>
       <r>    7.7701    1.0000 </r>
       <r>    7.8167    1.0000 </r>
       <r>    7.8623    1.0000 </r>
       <r>    7.8786    1.0000 </r>
       <r>    7.9321    1.0000 </r>
       <r>    8.0172    1.0000 </r>
       <r>    8.0602    1.0000 </r>
       <r>    8.1621    1.0000 </r>
       <r>    8.1722    1.0000 </r>
       <r>    8.1870    1.0000 </r>
       <r>    8.4581    1.0000 </r>
       <r>    8.7337    1.0000 </r>
       <r>    8.7621    1.0000 </r>
       <r>    8.7664    1.0000 </r>
       <r>    8.7975    1.0000 </r>
       <r>    8.9154    1.0000 </r>
       <r>    8.9430    0.9998 </r>
       <r>    8.9480    0.9997 </r>
       <r>    8.9589    0.9995 </r>
       <r>    8.9602    0.9995 </r>
       <r>    8.9622    0.9994 </r>
       <r>    8.9686    0.9992 </r>
       <r>    8.9784    0.9987 </r>
       <r>    9.1165    0.8573 </r>
       <r>    9.1254    0.8269 </r>
       <r>    9.1282    0.8165 </r>
       <r>    9.1521    0.7139 </r>
       <r>    9.1623    0.6630 </r>
       <r>    9.1683    0.6313 </r>
       <r>    9.3497    0.0129 </r>
       <r>    9.3896    0.0026 </r>
       <r>    9.3929    0.0022 </r>
       <r>    9.4827    0.0000 </r>
       <r>   10.3272    0.0000 </r>
       <r>   10.9538    0.0000 </r>
       <r>   11.1848    0.0000 </r>
       <r>   11.5062    0.0000 </r>
       <r>   11.6709    0.0000 </r>
       <r>   12.0240    0.0000 </r>
       <r>   12.2355    0.0000 </r>
       <r>   12.9484    0.0000 </r>
       <r>   13.1642    0.0000 </r>
       <r>   14.3845    0.0000 </r>
       <r>   14.6977    0.0000 </r>
       <r>   15.1194    0.0000 </r>
       <r>   16.3086    0.0000 </r>
       <r>   16.5477    0.0000 </r>
       <r>   16.5764    0.0000 </r>
       <r>   16.7624    0.0000 </r>
       <r>   17.2696    0.0000 </r>
       <r>   17.5793    0.0000 </r>
       <r>   17.7604    0.0000 </r>
       <r>   19.5325    0.0000 </r>
       <r>   19.8556    0.0000 </r>
      </set>
      <set comment="kpoint 2">
       <r>  -40.6978    1.0000 </r>
       <r>  -40.6950    1.0000 </r>
       <r>  -40.6900    1.0000 </r>
       <r>  -40.6878    1.0000 </r>
       <r>  -40.6867    1.0000 </r>
       <r>  -40.6845    1.0000 </r>
       <r>  -40.6836    1.0000 </r>
       <r>  -40.6784    1.0000 </r>
       <r>  -40.6747    1.0000 </r>
       <r>  -40.6742    1.0000 </r>
       <r>  -40.6548    1.0000 </r>
       <r>  -40.6541    1.0000 </r>
       <r>  -40.6426    1.0000 </r>
       <r>  -40.6205    1.0000 </r>
       <r>  -40.6108    1.0000 </r>
       <r>  -40.6048    1.0000 </r>
       <r>  -40.6019    1.0000 </r>
       <r>  -40.5942    1.0000 </r>
       <r>  -40.5918    1.0000 </r>
       <r>  -40.5852    1.0000 </r>
       <r>  -40.5818    1.0000 </r>
       <r>  -40.5590    1.0000 </r>
       <r>  -40.5579    1.0000 </r>
       <r>  -40.5466    1.0000 </r>
       <r>  -40.5313    1.0000 </r>
       <r>  -40.5201    1.0000 </r>
       <r>  -40.5148    1.0000 </r>
       <r>  -40.5113    1.0000 </r>
       <r>  -40.5081    1.0000 </r>
       <r>  -40.5075    1.0000 </r>
       <r>  -40.5049    1.0000 </r>
       <r>  -40.4954    1.0000 </r>
       <r>  -40.4879    1.0000 </r>
       <r>  -40.4871    1.0000 </r>
       <r>  -40.4856    1.0000 </r>
       <r>  -40.4817    1.0000 </r>
       <r>  -40.4780    1.0000 </r>
       <r>  -40.4776    1.0000 </r>
       <r>  -40.4773    1.0000 </r>
       <r>  -40.4751    1.0000 </r>
       <r>  -40.4697    1.0000 </r>
       <r>  -40.4597    1.0000 </r>
       <r>  -40.4504    1.0000 </r>
       <r>  -40.4484    1.0000 </r>
       <r>  -40.4386    1.0000 </r>
       <r>  -40.4343    1.0000 </r>
       <r>  -40.4295    1.0000 </r>
       <r>  -40.4236    1.0000 </r>
       <r>    3.9798    1.0000 </r>
       <r>    4.2687    1.0000 </r>
       <r>    4.4320    1.0000 </r>
       <r>    4.6552    1.0000 </r>
       <r>    4.7474    1.0000 </r>
       <r>    4.7758    1.0000 </r>
       <r>    4.9204    1.0000 </r>
       <r>    4.9383    1.0000 </r>
       <r>    5.0134    1.0000 </r>
       <r>    5.0453    1.0000 </r>
       <r>    5.0480    1.0000 </r>
       <r>    5.0740    1.0000 </r>
       <r>    5.0884    1.0000 </r>
       <r>    5.1481    1.0000 </r>
       <r>    5.1524    1.0000 </r>
       <r>    5.1918    1.0000 </r>
       <r>    5.2012    1.0000 </r>
       <r>    5.3310    1.0000 </r>
       <r>    5.3994    1.0000 </r>
       <r>    5.4032    1.0000 </r>
       <r>    5.5012    1.0000 </r>
       <r>    5.5414    1.0000 </r>
       <r>    5.6258    1.0000 </r>
       <r>    5.6326    1.0000 </r>
       <r>    5.7354    1.0000 </r>
       <r>    5.7775    1.0000 </r>
       <r>    5.7833    1.0000 </r>
       <r>    5.7849    1.0000 </r>
       <r>    5.8377    1.0000 </r>
       <r>    5.9914    1.0000 </r>
       <r>    6.0520    1.0000 </r>
       <r>    6.1817    1.0000 </r>
       <r>    6.2499    1.0000 </r>
       <r>    6.2676    1.0000 </r>
       <r>    6.3534    1.0000 </r>
       <r>    6.3762    1.0000 </r>
       <r>    6.4126    1.0000 </r>
       <r>    6.5206    1.0000 </r>
       <r>    6.5483    1.0000 </r>
       <r>    6.5797    1.0000 </r>
       <r>    6.6091    1.0000 </r>
       <r>    6.6184    1.0000 </r>
       <r>    6.7009    1.0000 </r>
       <r>    6.7375    1.0000 </r>
       <r>    6.7407    1.0000 </r>
       <r>    6.7994    1.0000 </r>
       <r>    6.8541    1.0000 </r>
       <r>    7.0641    1.0000 </r>
       <r>    7.0688    1.0000 </r>
       <r>    7.1030    1.0000 </r>
       <r>    7.1364    1.0000 </r>
       <r>    7.1531    1.0000 </r>
       <r>    7.3882    1.0000 </r>
       <r>    7.4694    1.0000 </r>
       <r>    7.5411    1.0000 </r>
       <r>    7.6348    1.0000 </r>
       <r>    7.7145    1.0000 </r>
       <r>    7.7188    1.0000 </r>
       <r>    7.7298    1.0000 </r>
       <r>    7.7781    1.0000 </r>
       <r>    7.8629    1.0000 </r>
       <r>    7.8648    1.0000 </r>
       <r>    7.9162    1.0000 </r>
       <r>    8.0213    1.0000 </r>
       <r>    8.0530    1.0000 </r>
       <r>    8.0610    1.0000 </r>
       <r>    8.0787    1.0000 </r>
       <r>    8.1609    1.0000 </r>
       <r>    8.4703    1.0000 </r>
       <r>    8.5206    1.0000 </r>
       <r>    8.6140    1.0000 </r>
       <r>    8.6468    1.0000 </r>
       <r>    8.7311    1.0000 </r>
       <r>    8.7486    1.0000 </r>
       <r>    8.7656    1.0000 </r>
       <r>    8.7749    1.0000 </r>
       <r>    8.8115    1.0000 </r>
       <r>    8.9056    1.0000 </r>
       <r>    9.0720    0.9552 </r>
       <r>    9.0997    0.9040 </r>
       <r>    9.1040    0.8934 </r>
       <r>    9.1816    0.5583 </r>
       <r>    9.1833    0.5488 </r>
       <r>    9.5758    0.0000 </r>
       <r>    9.6960    0.0000 </r>
       <r>    9.7367    0.0000 </r>
       <r>   10.6141    0.0000 </r>
       <r>   11.0729    0.0000 </r>
       <r>   12.3771    0.0000 </r>
       <r>   12.6246    0.0000 </r>
       <r>   13.8165    0.0000 </r>
       <r>   14.5892    0.0000 </r>
       <r>   14.6467    0.0000 </r>
       <r>   14.8507    0.0000 </r>
       <r>   15.7239    0.0000 </r>
       <r>   16.3931    0.0000 </r>
       <r>   16.7633    0.0000 </r>
       <r>   17.1265    0.0000 </r>
       <r>   17.2989    0.0000 </r>
       <r>   17.5841    0.0000 </r>
       <r>   17.8487    0.0000 </r>
       <r>   18.7502    0.0000 </r>
       <r>   19.1002    0.0000 </r>
       <r>   19.7387    0.0000 </r>
       <r>   20.3076    0.0000 </r>
      </set>
      <set comment="kpoint 3">
       <r>  -40.6945    1.0000 </r>
       <r>  -40.6931    1.0000 </r>
       <r>  -40.6830    1.0000 </r>
       <r>  -40.6812    1.0000 </r>
       <r>  -40.6800    1.0000 </r>
       <r>  -40.6788    1.0000 </r>
       <r>  -40.6763    1.0000 </r>
       <r>  -40.6743    1.0000 </r>
       <r>  -40.6727    1.0000 </r>
       <r>  -40.6602    1.0000 </r>
       <r>  -40.6536    1.0000 </r>
       <r>  -40.6374    1.0000 </r>
       <r>  -40.6262    1.0000 </r>
       <r>  -40.6216    1.0000 </r>
       <r>  -40.6156    1.0000 </r>
       <r>  -40.6120    1.0000 </r>
       <r>  -40.6096    1.0000 </r>
       <r>  -40.6028    1.0000 </r>
       <r>  -40.5907    1.0000 </r>
       <r>  -40.5880    1.0000 </r>
       <r>  -40.5865    1.0000 </r>
       <r>  -40.5794    1.0000 </r>
       <r>  -40.5757    1.0000 </r>
       <r>  -40.5535    1.0000 </r>
       <r>  -40.5442    1.0000 </r>
       <r>  -40.5217    1.0000 </r>
       <r>  -40.5119    1.0000 </r>
       <r>  -40.5087    1.0000 </r>
       <r>  -40.5038    1.0000 </r>
       <r>  -40.5014    1.0000 </r>
       <r>  -40.4924    1.0000 </r>
       <r>  -40.4916    1.0000 </r>
       <r>  -40.4889    1.0000 </r>
       <r>  -40.4859    1.0000 </r>
       <r>  -40.4855    1.0000 </r>
       <r>  -40.4848    1.0000 </r>
       <r>  -40.4826    1.0000 </r>
       <r>  -40.4822    1.0000 </r>
       <r>  -40.4731    1.0000 </r>
       <r>  -40.4713    1.0000 </r>
       <r>  -40.4654    1.0000 </r>
       <r>  -40.4645    1.0000 </r>
       <r>  -40.4630    1.0000 </r>
       <r>  -40.4526    1.0000 </r>
       <r>  -40.4467    1.0000 </r>
       <r>  -40.4407    1.0000 </r>
       <r>  -40.4293    1.0000 </r>
       <r>  -40.4185    1.0000 </r>
       <r>    4.2657    1.0000 </r>
       <r>    4.4017    1.0000 </r>
       <r>    4.4143    1.0000 </r>
       <r>    4.6590    1.0000 </r>
       <r>    4.7357    1.0000 </r>
       <r>    4.8012    1.0000 </r>
       <r>    4.9536    1.0000 </r>
       <r>    5.0929    1.0000 </r>
       <r>    5.1193    1.0000 </r>
       <r>    5.1275    1.0000 </r>
       <r>    5.1540    1.0000 </r>
       <r>    5.1794    1.0000 </r>
       <r>    5.2051    1.0000 </r>
       <r>    5.2215    1.0000 </r>
       <r>    5.2472    1.0000 </r>
       <r>    5.3464    1.0000 </r>
       <r>    5.4141    1.0000 </r>
       <r>    5.4181    1.0000 </r>
       <r>    5.4334    1.0000 </r>
       <r>    5.5282    1.0000 </r>
       <r>    5.5399    1.0000 </r>
       <r>    5.5639    1.0000 </r>
       <r>    5.6017    1.0000 </r>
       <r>    5.6297    1.0000 </r>
       <r>    5.6307    1.0000 </r>
       <r>    5.6538    1.0000 </r>
       <r>    5.6557    1.0000 </r>
       <r>    5.6739    1.0000 </r>
       <r>    5.7894    1.0000 </r>
       <r>    5.8535    1.0000 </r>
       <r>    5.9084    1.0000 </r>
       <r>    5.9364    1.0000 </r>
       <r>    6.0687    1.0000 </r>
       <r>    6.2241    1.0000 </r>
       <r>    6.2833    1.0000 </r>
       <r>    6.3795    1.0000 </r>
       <r>    6.3901    1.0000 </r>
       <r>    6.4284    1.0000 </r>
       <r>    6.4346    1.0000 </r>
       <r>    6.4388    1.0000 </r>
       <r>    6.4636    1.0000 </r>
       <r>    6.6015    1.0000 </r>
       <r>    6.6583    1.0000 </r>
       <r>    6.6631    1.0000 </r>
       <r>    6.7262    1.0000 </r>
       <r>    6.7278    1.0000 </r>
       <r>    6.7605    1.0000 </r>
       <r>    6.7634    1.0000 </r>
       <r>    7.0820    1.0000 </r>
       <r>    7.0915    1.0000 </r>
       <r>    7.2365    1.0000 </r>
       <r>    7.2766    1.0000 </r>
       <r>    7.4122    1.0000 </r>
       <r>    7.5711    1.0000 </r>
       <r>    7.7085    1.0000 </r>
       <r>    7.7122    1.0000 </r>
       <r>    7.7237    1.0000 </r>
       <r>    7.7401    1.0000 </r>
       <r>    7.7439    1.0000 </r>
       <r>    7.7515    1.0000 </r>
       <r>    7.8524    1.0000 </r>
       <r>    7.8713    1.0000 </r>
       <r>    7.8812    1.0000 </r>
       <r>    7.9483    1.0000 </r>
       <r>    8.0047    1.0000 </r>
       <r>    8.0582    1.0000 </r>
       <r>    8.0736    1.0000 </r>
       <r>    8.3512    1.0000 </r>
       <r>    8.4246    1.0000 </r>
       <r>    8.5864    1.0000 </r>
       <r>    8.6678    1.0000 </r>
       <r>    8.6723    1.0000 </r>
       <r>    8.6729    1.0000 </r>
       <r>    8.7139    1.0000 </r>
       <r>    8.7212    1.0000 </r>
       <r>    8.7617    1.0000 </r>
       <r>    8.8255    1.0000 </r>
       <r>    8.8818    1.0000 </r>
       <r>    8.9572    0.9996 </r>
       <r>    9.0796    0.9440 </r>
       <r>    9.0805    0.9426 </r>
       <r>    9.0875    0.9303 </r>
       <r>    9.0886    0.9282 </r>
       <r>    9.3325    0.0235 </r>
       <r>    9.4530    0.0001 </r>
       <r>    9.4948    0.0000 </r>
       <r>   10.5710    0.0000 </r>
       <r>   11.5569    0.0000 </r>
       <r>   11.9612    0.0000 </r>
       <r>   12.8157    0.0000 </r>
       <r>   14.4109    0.0000 </r>
       <r>   14.7735    0.0000 </r>
       <r>   14.9579    0.0000 </r>
       <r>   15.2277    0.0000 </r>
       <r>   15.3522    0.0000 </r>
       <r>   15.9492    0.0000 </r>
       <r>   16.7156    0.0000 </r>
       <r>   16.9852    0.0000 </r>
       <r>   17.1199    0.0000 </r>
       <r>   17.2840    0.0000 </r>
       <r>   18.0937    0.0000 </r>
       <r>   18.3470    0.0000 </r>
       <r>   19.7132    0.0000 </r>
       <r>   20.4845    0.0000 </r>
       <r>   20.6813    0.0000 </r>
      </set>
      <set comment="kpoint 4">
       <r>  -40.7681    1.0000 </r>
       <r>  -40.7677    1.0000 </r>
       <r>  -40.7677    1.0000 </r>
       <r>  -40.7622    1.0000 </r>
       <r>  -40.7481    1.0000 </r>
       <r>  -40.7465    1.0000 </r>
       <r>  -40.7464    1.0000 </r>
       <r>  -40.7212    1.0000 </r>
       <r>  -40.7201    1.0000 </r>
       <r>  -40.7170    1.0000 </r>
       <r>  -40.7067    1.0000 </r>
       <r>  -40.7061    1.0000 </r>
       <r>  -40.7052    1.0000 </r>
       <r>  -40.6339    1.0000 </r>
       <r>  -40.5658    1.0000 </r>
       <r>  -40.5557    1.0000 </r>
       <r>  -40.5533    1.0000 </r>
       <r>  -40.5405    1.0000 </r>
       <r>  -40.5401    1.0000 </r>
       <r>  -40.5377    1.0000 </r>
       <r>  -40.5371    1.0000 </r>
       <r>  -40.5365    1.0000 </r>
       <r>  -40.5360    1.0000 </r>
       <r>  -40.5343    1.0000 </r>
       <r>  -40.5314    1.0000 </r>
       <r>  -40.5295    1.0000 </r>
       <r>  -40.5201    1.0000 </r>
       <r>  -40.5075    1.0000 </r>
       <r>  -40.5071    1.0000 </r>
       <r>  -40.5058    1.0000 </r>
       <r>  -40.4844    1.0000 </r>
       <r>  -40.4836    1.0000 </r>
       <r>  -40.4834    1.0000 </r>
       <r>  -40.4558    1.0000 </r>
       <r>  -40.4553    1.0000 </r>
       <r>  -40.4548    1.0000 </r>
       <r>  -40.4540    1.0000 </r>
       <r>  -40.4524    1.0000 </r>
       <r>  -40.4522    1.0000 </r>
       <r>  -40.4519    1.0000 </r>
       <r>  -40.4509    1.0000 </r>
       <r>  -40.4345    1.0000 </r>
       <r>  -40.4308    1.0000 </r>
       <r>  -40.4197    1.0000 </r>
       <r>  -40.4169    1.0000 </r>
       <r>  -40.4032    1.0000 </r>
       <r>  -40.4003    1.0000 </r>
       <r>  -40.3983    1.0000 </r>
       <r>    2.3117    1.0000 </r>
       <r>    3.5489    1.0000 </r>
       <r>    4.0527    1.0000 </r>
       <r>    4.0583    1.0000 </r>
       <r>    4.0586    1.0000 </r>
       <r>    4.1101    1.0000 </r>
       <r>    4.1235    1.0000 </r>
       <r>    4.1368    1.0000 </r>
       <r>    4.1399    1.0000 </r>
       <r>    4.1469    1.0000 </r>
       <r>    4.3239    1.0000 </r>
       <r>    4.3307    1.0000 </r>
       <r>    4.3320    1.0000 </r>
       <r>    4.6368    1.0000 </r>
       <r>    4.6389    1.0000 </r>
       <r>    4.6390    1.0000 </r>
       <r>    4.7436    1.0000 </r>
       <r>    4.7728    1.0000 </r>
       <r>    4.7766    1.0000 </r>
       <r>    5.1415    1.0000 </r>
       <r>    5.1467    1.0000 </r>
       <r>    5.1721    1.0000 </r>
       <r>    5.8084    1.0000 </r>
       <r>    5.8136    1.0000 </r>
       <r>    5.8434    1.0000 </r>
       <r>    6.2510    1.0000 </r>
       <r>    6.3832    1.0000 </r>
       <r>    6.3938    1.0000 </r>
       <r>    6.3972    1.0000 </r>
       <r>    6.4382    1.0000 </r>
       <r>    6.4417    1.0000 </r>
       <r>    6.4446    1.0000 </r>
       <r>    6.4685    1.0000 </r>
       <r>    6.4695    1.0000 </r>
       <r>    6.4739    1.0000 </r>
       <r>    6.4958    1.0000 </r>
       <r>    6.4990    1.0000 </r>
       <r>    6.6868    1.0000 </r>
       <r>    6.7018    1.0000 </r>
       <r>    6.7643    1.0000 </r>
       <r>    6.7653    1.0000 </r>
       <r>    6.8391    1.0000 </r>
       <r>    6.8683    1.0000 </r>
       <r>    6.8770    1.0000 </r>
       <r>    6.8851    1.0000 </r>
       <r>    7.2901    1.0000 </r>
       <r>    7.3047    1.0000 </r>
       <r>    7.3050    1.0000 </r>
       <r>    7.3107    1.0000 </r>
       <r>    7.3159    1.0000 </r>
       <r>    7.3182    1.0000 </r>
       <r>    7.9643    1.0000 </r>
       <r>    7.9912    1.0000 </r>
       <r>    8.0177    1.0000 </r>
       <r>    8.0345    1.0000 </r>
       <r>    8.0397    1.0000 </r>
       <r>    8.0473    1.0000 </r>
       <r>    8.0737    1.0000 </r>
       <r>    8.3342    1.0000 </r>
       <r>    8.4287    1.0000 </r>
       <r>    8.7753    1.0000 </r>
       <r>    8.8054    1.0000 </r>
       <r>    8.8191    1.0000 </r>
       <r>    9.0740    0.9524 </r>
       <r>    9.0896    0.9262 </r>
       <r>    9.0900    0.9254 </r>
       <r>    9.1062    0.8874 </r>
       <r>    9.1116    0.8722 </r>
       <r>    9.1611    0.6688 </r>
       <r>    9.1641    0.6535 </r>
       <r>    9.1653    0.6471 </r>
       <r>    9.2150    0.3723 </r>
       <r>    9.2181    0.3560 </r>
       <r>    9.2374    0.2606 </r>
       <r>    9.2588    0.1725 </r>
       <r>    9.2656    0.1490 </r>
       <r>    9.2672    0.1437 </r>
       <r>    9.2774    0.1136 </r>
       <r>    9.2800    0.1067 </r>
       <r>    9.3377    0.0197 </r>
       <r>    9.4237    0.0005 </r>
       <r>    9.4466    0.0002 </r>
       <r>    9.4471    0.0002 </r>
       <r>   10.0109    0.0000 </r>
       <r>   10.5367    0.0000 </r>
       <r>   10.5901    0.0000 </r>
       <r>   10.7192    0.0000 </r>
       <r>   12.1770    0.0000 </r>
       <r>   12.4137    0.0000 </r>
       <r>   12.6837    0.0000 </r>
       <r>   12.6977    0.0000 </r>
       <r>   12.7292    0.0000 </r>
       <r>   12.7365    0.0000 </r>
       <r>   12.8048    0.0000 </r>
       <r>   12.8345    0.0000 </r>
       <r>   13.3941    0.0000 </r>
       <r>   16.3004    0.0000 </r>
       <r>   16.3858    0.0000 </r>
       <r>   16.4202    0.0000 </r>
       <r>   16.7121    0.0000 </r>
       <r>   17.3708    0.0000 </r>
       <r>   17.4692    0.0000 </r>
       <r>   17.9790    0.0000 </r>
       <r>   18.6507    0.0000 </r>
       <r>   19.1891    0.0000 </r>
      </set>
      <set comment="kpoint 5">
       <r>  -40.7080    1.0000 </r>
       <r>  -40.7060    1.0000 </r>
       <r>  -40.6896    1.0000 </r>
       <r>  -40.6794    1.0000 </r>
       <r>  -40.6755    1.0000 </r>
       <r>  -40.6752    1.0000 </r>
       <r>  -40.6741    1.0000 </r>
       <r>  -40.6730    1.0000 </r>
       <r>  -40.6577    1.0000 </r>
       <r>  -40.6568    1.0000 </r>
       <r>  -40.6523    1.0000 </r>
       <r>  -40.6423    1.0000 </r>
       <r>  -40.6376    1.0000 </r>
       <r>  -40.6316    1.0000 </r>
       <r>  -40.6223    1.0000 </r>
       <r>  -40.6218    1.0000 </r>
       <r>  -40.6115    1.0000 </r>
       <r>  -40.6108    1.0000 </r>
       <r>  -40.5981    1.0000 </r>
       <r>  -40.5971    1.0000 </r>
       <r>  -40.5705    1.0000 </r>
       <r>  -40.5693    1.0000 </r>
       <r>  -40.5615    1.0000 </r>
       <r>  -40.5447    1.0000 </r>
       <r>  -40.5352    1.0000 </r>
       <r>  -40.5112    1.0000 </r>
       <r>  -40.5060    1.0000 </r>
       <r>  -40.5031    1.0000 </r>
       <r>  -40.5010    1.0000 </r>
       <r>  -40.4989    1.0000 </r>
       <r>  -40.4979    1.0000 </r>
       <r>  -40.4958    1.0000 </r>
       <r>  -40.4954    1.0000 </r>
       <r>  -40.4903    1.0000 </r>
       <r>  -40.4885    1.0000 </r>
       <r>  -40.4881    1.0000 </r>
       <r>  -40.4879    1.0000 </r>
       <r>  -40.4816    1.0000 </r>
       <r>  -40.4712    1.0000 </r>
       <r>  -40.4678    1.0000 </r>
       <r>  -40.4625    1.0000 </r>
       <r>  -40.4582    1.0000 </r>
       <r>  -40.4523    1.0000 </r>
       <r>  -40.4513    1.0000 </r>
       <r>  -40.4504    1.0000 </r>
       <r>  -40.4480    1.0000 </r>
       <r>  -40.4331    1.0000 </r>
       <r>  -40.4146    1.0000 </r>
       <r>    3.9055    1.0000 </r>
       <r>    4.5803    1.0000 </r>
       <r>    4.6238    1.0000 </r>
       <r>    4.6282    1.0000 </r>
       <r>    4.7979    1.0000 </r>
       <r>    4.8001    1.0000 </r>
       <r>    4.8068    1.0000 </r>
       <r>    4.9402    1.0000 </r>
       <r>    5.0186    1.0000 </r>
       <r>    5.0602    1.0000 </r>
       <r>    5.0811    1.0000 </r>
       <r>    5.1454    1.0000 </r>
       <r>    5.1845    1.0000 </r>
       <r>    5.1897    1.0000 </r>
       <r>    5.2042    1.0000 </r>
       <r>    5.3581    1.0000 </r>
       <r>    5.3821    1.0000 </r>
       <r>    5.3869    1.0000 </r>
       <r>    5.4172    1.0000 </r>
       <r>    5.4328    1.0000 </r>
       <r>    5.5737    1.0000 </r>
       <r>    5.5805    1.0000 </r>
       <r>    5.5914    1.0000 </r>
       <r>    5.5957    1.0000 </r>
       <r>    5.6512    1.0000 </r>
       <r>    5.6542    1.0000 </r>
       <r>    5.6630    1.0000 </r>
       <r>    5.6718    1.0000 </r>
       <r>    5.7452    1.0000 </r>
       <r>    5.9304    1.0000 </r>
       <r>    5.9644    1.0000 </r>
       <r>    6.1074    1.0000 </r>
       <r>    6.1390    1.0000 </r>
       <r>    6.1450    1.0000 </r>
       <r>    6.1529    1.0000 </r>
       <r>    6.3056    1.0000 </r>
       <r>    6.4679    1.0000 </r>
       <r>    6.5002    1.0000 </r>
       <r>    6.5092    1.0000 </r>
       <r>    6.5364    1.0000 </r>
       <r>    6.5423    1.0000 </r>
       <r>    6.6108    1.0000 </r>
       <r>    6.6149    1.0000 </r>
       <r>    6.6272    1.0000 </r>
       <r>    6.6953    1.0000 </r>
       <r>    6.8147    1.0000 </r>
       <r>    6.8638    1.0000 </r>
       <r>    6.9936    1.0000 </r>
       <r>    7.0394    1.0000 </r>
       <r>    7.0819    1.0000 </r>
       <r>    7.1247    1.0000 </r>
       <r>    7.4494    1.0000 </r>
       <r>    7.5000    1.0000 </r>
       <r>    7.5052    1.0000 </r>
       <r>    7.5115    1.0000 </r>
       <r>    7.5215    1.0000 </r>
       <r>    7.5473    1.0000 </r>
       <r>    7.6732    1.0000 </r>
       <r>    7.8234    1.0000 </r>
       <r>    7.8262    1.0000 </r>
       <r>    7.8468    1.0000 </r>
       <r>    7.9716    1.0000 </r>
       <r>    7.9847    1.0000 </r>
       <r>    8.0911    1.0000 </r>
       <r>    8.1112    1.0000 </r>
       <r>    8.1249    1.0000 </r>
       <r>    8.1352    1.0000 </r>
       <r>    8.3911    1.0000 </r>
       <r>    8.4733    1.0000 </r>
       <r>    8.5637    1.0000 </r>
       <r>    8.5947    1.0000 </r>
       <r>    8.7156    1.0000 </r>
       <r>    8.7903    1.0000 </r>
       <r>    8.8095    1.0000 </r>
       <r>    8.8356    1.0000 </r>
       <r>    8.8477    1.0000 </r>
       <r>    8.9154    1.0000 </r>
       <r>    8.9171    0.9999 </r>
       <r>    8.9508    0.9997 </r>
       <r>    9.0107    0.9948 </r>
       <r>    9.0114    0.9947 </r>
       <r>    9.1584    0.6829 </r>
       <r>    9.2544    0.1889 </r>
       <r>    9.3768    0.0045 </r>
       <r>    9.3957    0.0020 </r>
       <r>    9.4103    0.0010 </r>
       <r>    9.9956    0.0000 </r>
       <r>   11.1905    0.0000 </r>
       <r>   12.5676    0.0000 </r>
       <r>   13.6732    0.0000 </r>
       <r>   14.3359    0.0000 </r>
       <r>   14.4444    0.0000 </r>
       <r>   14.5630    0.0000 </r>
       <r>   14.5882    0.0000 </r>
       <r>   14.9078    0.0000 </r>
       <r>   16.3769    0.0000 </r>
       <r>   16.6342    0.0000 </r>
       <r>   16.7420    0.0000 </r>
       <r>   16.8737    0.0000 </r>
       <r>   18.3503    0.0000 </r>
       <r>   18.3778    0.0000 </r>
       <r>   18.4682    0.0000 </r>
       <r>   19.8448    0.0000 </r>
       <r>   20.0425    0.0000 </r>
       <r>   20.0797    0.0000 </r>
      </set>
      <set comment="kpoint 6">
       <r>  -40.7124    1.0000 </r>
       <r>  -40.7113    1.0000 </r>
       <r>  -40.6954    1.0000 </r>
       <r>  -40.6879    1.0000 </r>
       <r>  -40.6822    1.0000 </r>
       <r>  -40.6818    1.0000 </r>
       <r>  -40.6801    1.0000 </r>
       <r>  -40.6748    1.0000 </r>
       <r>  -40.6727    1.0000 </r>
       <r>  -40.6573    1.0000 </r>
       <r>  -40.6469    1.0000 </r>
       <r>  -40.6466    1.0000 </r>
       <r>  -40.6390    1.0000 </r>
       <r>  -40.6288    1.0000 </r>
       <r>  -40.6272    1.0000 </r>
       <r>  -40.6157    1.0000 </r>
       <r>  -40.6117    1.0000 </r>
       <r>  -40.6052    1.0000 </r>
       <r>  -40.5900    1.0000 </r>
       <r>  -40.5809    1.0000 </r>
       <r>  -40.5648    1.0000 </r>
       <r>  -40.5641    1.0000 </r>
       <r>  -40.5541    1.0000 </r>
       <r>  -40.5365    1.0000 </r>
       <r>  -40.5306    1.0000 </r>
       <r>  -40.5141    1.0000 </r>
       <r>  -40.5112    1.0000 </r>
       <r>  -40.5108    1.0000 </r>
       <r>  -40.5099    1.0000 </r>
       <r>  -40.5061    1.0000 </r>
       <r>  -40.4996    1.0000 </r>
       <r>  -40.4958    1.0000 </r>
       <r>  -40.4954    1.0000 </r>
       <r>  -40.4879    1.0000 </r>
       <r>  -40.4860    1.0000 </r>
       <r>  -40.4851    1.0000 </r>
       <r>  -40.4842    1.0000 </r>
       <r>  -40.4828    1.0000 </r>
       <r>  -40.4702    1.0000 </r>
       <r>  -40.4677    1.0000 </r>
       <r>  -40.4648    1.0000 </r>
       <r>  -40.4570    1.0000 </r>
       <r>  -40.4506    1.0000 </r>
       <r>  -40.4427    1.0000 </r>
       <r>  -40.4412    1.0000 </r>
       <r>  -40.4406    1.0000 </r>
       <r>  -40.4404    1.0000 </r>
       <r>  -40.4139    1.0000 </r>
       <r>    3.7583    1.0000 </r>
       <r>    4.4305    1.0000 </r>
       <r>    4.4390    1.0000 </r>
       <r>    4.7038    1.0000 </r>
       <r>    4.7466    1.0000 </r>
       <r>    4.7830    1.0000 </r>
       <r>    4.8220    1.0000 </r>
       <r>    4.8816    1.0000 </r>
       <r>    4.9041    1.0000 </r>
       <r>    5.0396    1.0000 </r>
       <r>    5.0475    1.0000 </r>
       <r>    5.0538    1.0000 </r>
       <r>    5.0782    1.0000 </r>
       <r>    5.1396    1.0000 </r>
       <r>    5.1509    1.0000 </r>
       <r>    5.2427    1.0000 </r>
       <r>    5.2653    1.0000 </r>
       <r>    5.3176    1.0000 </r>
       <r>    5.3573    1.0000 </r>
       <r>    5.5368    1.0000 </r>
       <r>    5.5785    1.0000 </r>
       <r>    5.6485    1.0000 </r>
       <r>    5.6538    1.0000 </r>
       <r>    5.6561    1.0000 </r>
       <r>    5.6896    1.0000 </r>
       <r>    5.7033    1.0000 </r>
       <r>    5.7046    1.0000 </r>
       <r>    5.7636    1.0000 </r>
       <r>    5.7738    1.0000 </r>
       <r>    5.9887    1.0000 </r>
       <r>    6.0765    1.0000 </r>
       <r>    6.0853    1.0000 </r>
       <r>    6.1040    1.0000 </r>
       <r>    6.2382    1.0000 </r>
       <r>    6.3005    1.0000 </r>
       <r>    6.3174    1.0000 </r>
       <r>    6.4119    1.0000 </r>
       <r>    6.4526    1.0000 </r>
       <r>    6.5178    1.0000 </r>
       <r>    6.5634    1.0000 </r>
       <r>    6.6537    1.0000 </r>
       <r>    6.7428    1.0000 </r>
       <r>    6.7600    1.0000 </r>
       <r>    6.7832    1.0000 </r>
       <r>    6.8242    1.0000 </r>
       <r>    6.8612    1.0000 </r>
       <r>    6.9267    1.0000 </r>
       <r>    6.9560    1.0000 </r>
       <r>    7.0851    1.0000 </r>
       <r>    7.0972    1.0000 </r>
       <r>    7.1987    1.0000 </r>
       <r>    7.4053    1.0000 </r>
       <r>    7.4142    1.0000 </r>
       <r>    7.4341    1.0000 </r>
       <r>    7.4527    1.0000 </r>
       <r>    7.5851    1.0000 </r>
       <r>    7.6458    1.0000 </r>
       <r>    7.6955    1.0000 </r>
       <r>    7.7522    1.0000 </r>
       <r>    7.8455    1.0000 </r>
       <r>    7.8634    1.0000 </r>
       <r>    7.8872    1.0000 </r>
       <r>    7.9172    1.0000 </r>
       <r>    7.9923    1.0000 </r>
       <r>    8.0888    1.0000 </r>
       <r>    8.1435    1.0000 </r>
       <r>    8.2821    1.0000 </r>
       <r>    8.2943    1.0000 </r>
       <r>    8.3381    1.0000 </r>
       <r>    8.4218    1.0000 </r>
       <r>    8.4474    1.0000 </r>
       <r>    8.6425    1.0000 </r>
       <r>    8.6606    1.0000 </r>
       <r>    8.8108    1.0000 </r>
       <r>    8.8977    1.0000 </r>
       <r>    8.9490    0.9997 </r>
       <r>    9.0059    0.9957 </r>
       <r>    9.0165    0.9935 </r>
       <r>    9.0343    0.9871 </r>
       <r>    9.0620    0.9670 </r>
       <r>    9.0666    0.9619 </r>
       <r>    9.0945    0.9160 </r>
       <r>    9.0963    0.9122 </r>
       <r>    9.3847    0.0032 </r>
       <r>    9.6986    0.0000 </r>
       <r>   10.1187    0.0000 </r>
       <r>   10.1435    0.0000 </r>
       <r>   11.0598    0.0000 </r>
       <r>   12.9511    0.0000 </r>
       <r>   13.2825    0.0000 </r>
       <r>   13.5159    0.0000 </r>
       <r>   13.8304    0.0000 </r>
       <r>   14.3096    0.0000 </r>
       <r>   14.8360    0.0000 </r>
       <r>   15.9137    0.0000 </r>
       <r>   16.0376    0.0000 </r>
       <r>   16.4606    0.0000 </r>
       <r>   16.9876    0.0000 </r>
       <r>   17.2342    0.0000 </r>
       <r>   17.8315    0.0000 </r>
       <r>   18.7792    0.0000 </r>
       <r>   19.1206    0.0000 </r>
       <r>   19.3424    0.0000 </r>
       <r>   20.0896    0.0000 </r>
       <r>   20.1933    0.0000 </r>
      </set>
      <set comment="kpoint 7">
       <r>  -40.7456    1.0000 </r>
       <r>  -40.7436    1.0000 </r>
       <r>  -40.7276    1.0000 </r>
       <r>  -40.7218    1.0000 </r>
       <r>  -40.7212    1.0000 </r>
       <r>  -40.7184    1.0000 </r>
       <r>  -40.7156    1.0000 </r>
       <r>  -40.7142    1.0000 </r>
       <r>  -40.7100    1.0000 </r>
       <r>  -40.7057    1.0000 </r>
       <r>  -40.7017    1.0000 </r>
       <r>  -40.7007    1.0000 </r>
       <r>  -40.6802    1.0000 </r>
       <r>  -40.6798    1.0000 </r>
       <r>  -40.5916    1.0000 </r>
       <r>  -40.5833    1.0000 </r>
       <r>  -40.5758    1.0000 </r>
       <r>  -40.5526    1.0000 </r>
       <r>  -40.5416    1.0000 </r>
       <r>  -40.5397    1.0000 </r>
       <r>  -40.5304    1.0000 </r>
       <r>  -40.5284    1.0000 </r>
       <r>  -40.5251    1.0000 </r>
       <r>  -40.5235    1.0000 </r>
       <r>  -40.5207    1.0000 </r>
       <r>  -40.5202    1.0000 </r>
       <r>  -40.5123    1.0000 </r>
       <r>  -40.5059    1.0000 </r>
       <r>  -40.5047    1.0000 </r>
       <r>  -40.5039    1.0000 </r>
       <r>  -40.4995    1.0000 </r>
       <r>  -40.4964    1.0000 </r>
       <r>  -40.4798    1.0000 </r>
       <r>  -40.4731    1.0000 </r>
       <r>  -40.4676    1.0000 </r>
       <r>  -40.4671    1.0000 </r>
       <r>  -40.4664    1.0000 </r>
       <r>  -40.4640    1.0000 </r>
       <r>  -40.4627    1.0000 </r>
       <r>  -40.4611    1.0000 </r>
       <r>  -40.4563    1.0000 </r>
       <r>  -40.4515    1.0000 </r>
       <r>  -40.4432    1.0000 </r>
       <r>  -40.4386    1.0000 </r>
       <r>  -40.4296    1.0000 </r>
       <r>  -40.4226    1.0000 </r>
       <r>  -40.4153    1.0000 </r>
       <r>  -40.4045    1.0000 </r>
       <r>    2.9322    1.0000 </r>
       <r>    3.4225    1.0000 </r>
       <r>    4.2583    1.0000 </r>
       <r>    4.3785    1.0000 </r>
       <r>    4.3845    1.0000 </r>
       <r>    4.4069    1.0000 </r>
       <r>    4.4270    1.0000 </r>
       <r>    4.5266    1.0000 </r>
       <r>    4.5370    1.0000 </r>
       <r>    4.5653    1.0000 </r>
       <r>    4.5788    1.0000 </r>
       <r>    4.6214    1.0000 </r>
       <r>    4.6543    1.0000 </r>
       <r>    4.6656    1.0000 </r>
       <r>    4.6954    1.0000 </r>
       <r>    4.7368    1.0000 </r>
       <r>    4.7419    1.0000 </r>
       <r>    4.7885    1.0000 </r>
       <r>    4.8230    1.0000 </r>
       <r>    4.8817    1.0000 </r>
       <r>    4.9999    1.0000 </r>
       <r>    5.0334    1.0000 </r>
       <r>    5.9369    1.0000 </r>
       <r>    5.9524    1.0000 </r>
       <r>    6.0313    1.0000 </r>
       <r>    6.0490    1.0000 </r>
       <r>    6.0667    1.0000 </r>
       <r>    6.1603    1.0000 </r>
       <r>    6.2272    1.0000 </r>
       <r>    6.2687    1.0000 </r>
       <r>    6.4294    1.0000 </r>
       <r>    6.4958    1.0000 </r>
       <r>    6.6360    1.0000 </r>
       <r>    6.6867    1.0000 </r>
       <r>    6.7163    1.0000 </r>
       <r>    6.7638    1.0000 </r>
       <r>    6.7754    1.0000 </r>
       <r>    6.8142    1.0000 </r>
       <r>    6.8283    1.0000 </r>
       <r>    6.8671    1.0000 </r>
       <r>    6.8748    1.0000 </r>
       <r>    6.8992    1.0000 </r>
       <r>    6.9408    1.0000 </r>
       <r>    6.9801    1.0000 </r>
       <r>    7.0370    1.0000 </r>
       <r>    7.1182    1.0000 </r>
       <r>    7.1195    1.0000 </r>
       <r>    7.1723    1.0000 </r>
       <r>    7.2333    1.0000 </r>
       <r>    7.2839    1.0000 </r>
       <r>    7.4190    1.0000 </r>
       <r>    7.4775    1.0000 </r>
       <r>    7.4941    1.0000 </r>
       <r>    7.6124    1.0000 </r>
       <r>    7.7055    1.0000 </r>
       <r>    7.8071    1.0000 </r>
       <r>    7.9253    1.0000 </r>
       <r>    8.0228    1.0000 </r>
       <r>    8.0509    1.0000 </r>
       <r>    8.0789    1.0000 </r>
       <r>    8.1639    1.0000 </r>
       <r>    8.2493    1.0000 </r>
       <r>    8.2962    1.0000 </r>
       <r>    8.3595    1.0000 </r>
       <r>    8.3820    1.0000 </r>
       <r>    8.4026    1.0000 </r>
       <r>    8.6387    1.0000 </r>
       <r>    8.7159    1.0000 </r>
       <r>    8.7670    1.0000 </r>
       <r>    8.7681    1.0000 </r>
       <r>    8.7796    1.0000 </r>
       <r>    8.8014    1.0000 </r>
       <r>    8.8648    1.0000 </r>
       <r>    9.0209    0.9922 </r>
       <r>    9.1053    0.8900 </r>
       <r>    9.1126    0.8692 </r>
       <r>    9.1385    0.7752 </r>
       <r>    9.2190    0.3512 </r>
       <r>    9.2668    0.1449 </r>
       <r>    9.2808    0.1046 </r>
       <r>    9.2851    0.0939 </r>
       <r>    9.3287    0.0266 </r>
       <r>    9.3320    0.0238 </r>
       <r>    9.8859    0.0000 </r>
       <r>    9.9772    0.0000 </r>
       <r>   10.6260    0.0000 </r>
       <r>   11.0683    0.0000 </r>
       <r>   11.8210    0.0000 </r>
       <r>   11.9182    0.0000 </r>
       <r>   12.3148    0.0000 </r>
       <r>   12.5961    0.0000 </r>
       <r>   12.7664    0.0000 </r>
       <r>   12.9659    0.0000 </r>
       <r>   14.3443    0.0000 </r>
       <r>   14.7228    0.0000 </r>
       <r>   15.2935    0.0000 </r>
       <r>   16.3135    0.0000 </r>
       <r>   16.5775    0.0000 </r>
       <r>   17.1583    0.0000 </r>
       <r>   18.0835    0.0000 </r>
       <r>   18.2674    0.0000 </r>
       <r>   18.7410    0.0000 </r>
       <r>   19.0020    0.0000 </r>
       <r>   19.2133    0.0000 </r>
       <r>   19.2401    0.0000 </r>
      </set>
      <set comment="kpoint 8">
       <r>  -40.7389    1.0000 </r>
       <r>  -40.7383    1.0000 </r>
       <r>  -40.7306    1.0000 </r>
       <r>  -40.7160    1.0000 </r>
       <r>  -40.7158    1.0000 </r>
       <r>  -40.7126    1.0000 </r>
       <r>  -40.6924    1.0000 </r>
       <r>  -40.6811    1.0000 </r>
       <r>  -40.6775    1.0000 </r>
       <r>  -40.6766    1.0000 </r>
       <r>  -40.6728    1.0000 </r>
       <r>  -40.6696    1.0000 </r>
       <r>  -40.6309    1.0000 </r>
       <r>  -40.6217    1.0000 </r>
       <r>  -40.6197    1.0000 </r>
       <r>  -40.6106    1.0000 </r>
       <r>  -40.6063    1.0000 </r>
       <r>  -40.5747    1.0000 </r>
       <r>  -40.5731    1.0000 </r>
       <r>  -40.5631    1.0000 </r>
       <r>  -40.5549    1.0000 </r>
       <r>  -40.5462    1.0000 </r>
       <r>  -40.5339    1.0000 </r>
       <r>  -40.5201    1.0000 </r>
       <r>  -40.5197    1.0000 </r>
       <r>  -40.5196    1.0000 </r>
       <r>  -40.5190    1.0000 </r>
       <r>  -40.5180    1.0000 </r>
       <r>  -40.5100    1.0000 </r>
       <r>  -40.5056    1.0000 </r>
       <r>  -40.4915    1.0000 </r>
       <r>  -40.4870    1.0000 </r>
       <r>  -40.4861    1.0000 </r>
       <r>  -40.4802    1.0000 </r>
       <r>  -40.4797    1.0000 </r>
       <r>  -40.4747    1.0000 </r>
       <r>  -40.4739    1.0000 </r>
       <r>  -40.4712    1.0000 </r>
       <r>  -40.4685    1.0000 </r>
       <r>  -40.4669    1.0000 </r>
       <r>  -40.4615    1.0000 </r>
       <r>  -40.4588    1.0000 </r>
       <r>  -40.4456    1.0000 </r>
       <r>  -40.4437    1.0000 </r>
       <r>  -40.4401    1.0000 </r>
       <r>  -40.4313    1.0000 </r>
       <r>  -40.4144    1.0000 </r>
       <r>  -40.4060    1.0000 </r>
       <r>    3.0522    1.0000 </r>
       <r>    4.2182    1.0000 </r>
       <r>    4.3105    1.0000 </r>
       <r>    4.4336    1.0000 </r>
       <r>    4.4364    1.0000 </r>
       <r>    4.4473    1.0000 </r>
       <r>    4.5324    1.0000 </r>
       <r>    4.6141    1.0000 </r>
       <r>    4.6290    1.0000 </r>
       <r>    4.7214    1.0000 </r>
       <r>    4.7251    1.0000 </r>
       <r>    4.7485    1.0000 </r>
       <r>    4.7788    1.0000 </r>
       <r>    4.8107    1.0000 </r>
       <r>    5.1185    1.0000 </r>
       <r>    5.1586    1.0000 </r>
       <r>    5.2052    1.0000 </r>
       <r>    5.2273    1.0000 </r>
       <r>    5.2548    1.0000 </r>
       <r>    5.3956    1.0000 </r>
       <r>    5.5680    1.0000 </r>
       <r>    5.5782    1.0000 </r>
       <r>    5.6161    1.0000 </r>
       <r>    5.7955    1.0000 </r>
       <r>    5.7972    1.0000 </r>
       <r>    5.8724    1.0000 </r>
       <r>    5.9118    1.0000 </r>
       <r>    6.0077    1.0000 </r>
       <r>    6.0255    1.0000 </r>
       <r>    6.0303    1.0000 </r>
       <r>    6.1252    1.0000 </r>
       <r>    6.1513    1.0000 </r>
       <r>    6.2294    1.0000 </r>
       <r>    6.2799    1.0000 </r>
       <r>    6.3603    1.0000 </r>
       <r>    6.4194    1.0000 </r>
       <r>    6.5685    1.0000 </r>
       <r>    6.5867    1.0000 </r>
       <r>    6.6279    1.0000 </r>
       <r>    6.7064    1.0000 </r>
       <r>    6.7228    1.0000 </r>
       <r>    6.8227    1.0000 </r>
       <r>    6.8939    1.0000 </r>
       <r>    6.9422    1.0000 </r>
       <r>    6.9527    1.0000 </r>
       <r>    6.9591    1.0000 </r>
       <r>    7.2080    1.0000 </r>
       <r>    7.2245    1.0000 </r>
       <r>    7.2870    1.0000 </r>
       <r>    7.2985    1.0000 </r>
       <r>    7.3188    1.0000 </r>
       <r>    7.6193    1.0000 </r>
       <r>    7.6373    1.0000 </r>
       <r>    7.6842    1.0000 </r>
       <r>    7.6910    1.0000 </r>
       <r>    7.7285    1.0000 </r>
       <r>    7.7498    1.0000 </r>
       <r>    7.8445    1.0000 </r>
       <r>    7.9024    1.0000 </r>
       <r>    7.9030    1.0000 </r>
       <r>    7.9340    1.0000 </r>
       <r>    7.9687    1.0000 </r>
       <r>    7.9799    1.0000 </r>
       <r>    8.0151    1.0000 </r>
       <r>    8.0509    1.0000 </r>
       <r>    8.3130    1.0000 </r>
       <r>    8.5029    1.0000 </r>
       <r>    8.5131    1.0000 </r>
       <r>    8.5387    1.0000 </r>
       <r>    8.5661    1.0000 </r>
       <r>    8.5952    1.0000 </r>
       <r>    8.5958    1.0000 </r>
       <r>    8.6848    1.0000 </r>
       <r>    8.6963    1.0000 </r>
       <r>    8.8657    1.0000 </r>
       <r>    9.1201    0.8453 </r>
       <r>    9.1520    0.7140 </r>
       <r>    9.1617    0.6657 </r>
       <r>    9.1948    0.4844 </r>
       <r>    9.1995    0.4581 </r>
       <r>    9.2015    0.4468 </r>
       <r>    9.2830    0.0990 </r>
       <r>    9.2872    0.0891 </r>
       <r>    9.2887    0.0858 </r>
       <r>    9.5886    0.0000 </r>
       <r>   11.0057    0.0000 </r>
       <r>   11.2454    0.0000 </r>
       <r>   12.1877    0.0000 </r>
       <r>   12.2501    0.0000 </r>
       <r>   12.3332    0.0000 </r>
       <r>   12.6490    0.0000 </r>
       <r>   12.7901    0.0000 </r>
       <r>   13.8953    0.0000 </r>
       <r>   13.9467    0.0000 </r>
       <r>   15.5103    0.0000 </r>
       <r>   16.4957    0.0000 </r>
       <r>   16.5070    0.0000 </r>
       <r>   16.8012    0.0000 </r>
       <r>   16.9802    0.0000 </r>
       <r>   17.7858    0.0000 </r>
       <r>   18.0122    0.0000 </r>
       <r>   18.4454    0.0000 </r>
       <r>   19.2426    0.0000 </r>
       <r>   19.9266    0.0000 </r>
       <r>   20.1481    0.0000 </r>
      </set>
      <set comment="kpoint 9">
       <r>  -40.7334    1.0000 </r>
       <r>  -40.7312    1.0000 </r>
       <r>  -40.7261    1.0000 </r>
       <r>  -40.7126    1.0000 </r>
       <r>  -40.7102    1.0000 </r>
       <r>  -40.7086    1.0000 </r>
       <r>  -40.6799    1.0000 </r>
       <r>  -40.6796    1.0000 </r>
       <r>  -40.6748    1.0000 </r>
       <r>  -40.6720    1.0000 </r>
       <r>  -40.6678    1.0000 </r>
       <r>  -40.6659    1.0000 </r>
       <r>  -40.6369    1.0000 </r>
       <r>  -40.6268    1.0000 </r>
       <r>  -40.6222    1.0000 </r>
       <r>  -40.6176    1.0000 </r>
       <r>  -40.5944    1.0000 </r>
       <r>  -40.5737    1.0000 </r>
       <r>  -40.5626    1.0000 </r>
       <r>  -40.5620    1.0000 </r>
       <r>  -40.5557    1.0000 </r>
       <r>  -40.5539    1.0000 </r>
       <r>  -40.5351    1.0000 </r>
       <r>  -40.5256    1.0000 </r>
       <r>  -40.5253    1.0000 </r>
       <r>  -40.5160    1.0000 </r>
       <r>  -40.5158    1.0000 </r>
       <r>  -40.5152    1.0000 </r>
       <r>  -40.5145    1.0000 </r>
       <r>  -40.5139    1.0000 </r>
       <r>  -40.5039    1.0000 </r>
       <r>  -40.4984    1.0000 </r>
       <r>  -40.4975    1.0000 </r>
       <r>  -40.4845    1.0000 </r>
       <r>  -40.4768    1.0000 </r>
       <r>  -40.4758    1.0000 </r>
       <r>  -40.4737    1.0000 </r>
       <r>  -40.4733    1.0000 </r>
       <r>  -40.4715    1.0000 </r>
       <r>  -40.4671    1.0000 </r>
       <r>  -40.4578    1.0000 </r>
       <r>  -40.4563    1.0000 </r>
       <r>  -40.4497    1.0000 </r>
       <r>  -40.4398    1.0000 </r>
       <r>  -40.4364    1.0000 </r>
       <r>  -40.4358    1.0000 </r>
       <r>  -40.4161    1.0000 </r>
       <r>  -40.4082    1.0000 </r>
       <r>    3.2110    1.0000 </r>
       <r>    4.1994    1.0000 </r>
       <r>    4.2576    1.0000 </r>
       <r>    4.5018    1.0000 </r>
       <r>    4.5077    1.0000 </r>
       <r>    4.5090    1.0000 </r>
       <r>    4.6194    1.0000 </r>
       <r>    4.6673    1.0000 </r>
       <r>    4.6869    1.0000 </r>
       <r>    4.6890    1.0000 </r>
       <r>    4.8568    1.0000 </r>
       <r>    4.8583    1.0000 </r>
       <r>    4.9179    1.0000 </r>
       <r>    4.9545    1.0000 </r>
       <r>    5.0774    1.0000 </r>
       <r>    5.1023    1.0000 </r>
       <r>    5.1781    1.0000 </r>
       <r>    5.2667    1.0000 </r>
       <r>    5.2852    1.0000 </r>
       <r>    5.4165    1.0000 </r>
       <r>    5.5509    1.0000 </r>
       <r>    5.5919    1.0000 </r>
       <r>    5.5934    1.0000 </r>
       <r>    5.8686    1.0000 </r>
       <r>    5.9150    1.0000 </r>
       <r>    5.9170    1.0000 </r>
       <r>    5.9263    1.0000 </r>
       <r>    5.9581    1.0000 </r>
       <r>    5.9613    1.0000 </r>
       <r>    6.0580    1.0000 </r>
       <r>    6.0623    1.0000 </r>
       <r>    6.0993    1.0000 </r>
       <r>    6.2222    1.0000 </r>
       <r>    6.2749    1.0000 </r>
       <r>    6.3383    1.0000 </r>
       <r>    6.3578    1.0000 </r>
       <r>    6.5115    1.0000 </r>
       <r>    6.6131    1.0000 </r>
       <r>    6.6515    1.0000 </r>
       <r>    6.7324    1.0000 </r>
       <r>    6.7419    1.0000 </r>
       <r>    6.9211    1.0000 </r>
       <r>    7.0157    1.0000 </r>
       <r>    7.0362    1.0000 </r>
       <r>    7.0391    1.0000 </r>
       <r>    7.0430    1.0000 </r>
       <r>    7.1286    1.0000 </r>
       <r>    7.1424    1.0000 </r>
       <r>    7.1438    1.0000 </r>
       <r>    7.2402    1.0000 </r>
       <r>    7.3581    1.0000 </r>
       <r>    7.3959    1.0000 </r>
       <r>    7.5363    1.0000 </r>
       <r>    7.5677    1.0000 </r>
       <r>    7.6254    1.0000 </r>
       <r>    7.7048    1.0000 </r>
       <r>    7.7227    1.0000 </r>
       <r>    7.7297    1.0000 </r>
       <r>    7.7428    1.0000 </r>
       <r>    7.8208    1.0000 </r>
       <r>    7.8730    1.0000 </r>
       <r>    7.8940    1.0000 </r>
       <r>    7.9642    1.0000 </r>
       <r>    7.9911    1.0000 </r>
       <r>    8.0449    1.0000 </r>
       <r>    8.1818    1.0000 </r>
       <r>    8.3639    1.0000 </r>
       <r>    8.3724    1.0000 </r>
       <r>    8.3759    1.0000 </r>
       <r>    8.3791    1.0000 </r>
       <r>    8.4746    1.0000 </r>
       <r>    8.5416    1.0000 </r>
       <r>    8.5617    1.0000 </r>
       <r>    8.5735    1.0000 </r>
       <r>    8.6645    1.0000 </r>
       <r>    8.9169    0.9999 </r>
       <r>    9.1810    0.5621 </r>
       <r>    9.1828    0.5517 </r>
       <r>    9.2176    0.3586 </r>
       <r>    9.2800    0.1067 </r>
       <r>    9.2878    0.0878 </r>
       <r>    9.2890    0.0850 </r>
       <r>    9.2895    0.0839 </r>
       <r>    9.2903    0.0823 </r>
       <r>    9.9581    0.0000 </r>
       <r>   11.0173    0.0000 </r>
       <r>   11.5824    0.0000 </r>
       <r>   12.0618    0.0000 </r>
       <r>   12.5807    0.0000 </r>
       <r>   12.5931    0.0000 </r>
       <r>   12.6369    0.0000 </r>
       <r>   12.6406    0.0000 </r>
       <r>   13.2902    0.0000 </r>
       <r>   13.7688    0.0000 </r>
       <r>   15.9608    0.0000 </r>
       <r>   16.8455    0.0000 </r>
[...]
       <r>    5.5391    1.0000 </r>
       <r>    5.5529    1.0000 </r>
       <r>    5.6251    1.0000 </r>
       <r>    5.6746    1.0000 </r>
       <r>    5.8189    1.0000 </r>
       <r>    5.8327    1.0000 </r>
       <r>    6.0649    1.0000 </r>
       <r>    6.0711    1.0000 </r>
       <r>    6.2054    1.0000 </r>
       <r>    6.2234    1.0000 </r>
       <r>    6.2543    1.0000 </r>
       <r>    6.3634    1.0000 </r>
       <r>    6.4208    1.0000 </r>
       <r>    6.4382    1.0000 </r>
       <r>    6.5086    1.0000 </r>
       <r>    6.5436    1.0000 </r>
       <r>    6.5657    1.0000 </r>
       <r>    6.6348    1.0000 </r>
       <r>    6.6697    1.0000 </r>
       <r>    6.6813    1.0000 </r>
       <r>    6.6864    1.0000 </r>
       <r>    6.7059    1.0000 </r>
       <r>    6.7167    1.0000 </r>
       <r>    6.8459    1.0000 </r>
       <r>    6.8469    1.0000 </r>
       <r>    7.1903    1.0000 </r>
       <r>    7.1942    1.0000 </r>
       <r>    7.5506    1.0000 </r>
       <r>    7.5524    1.0000 </r>
       <r>    7.5575    1.0000 </r>
       <r>    7.5829    1.0000 </r>
       <r>    7.6306    1.0000 </r>
       <r>    7.7201    1.0000 </r>
       <r>    7.7701    1.0000 </r>
       <r>    7.7915    1.0000 </r>
       <r>    7.8371    1.0000 </r>
       <r>    7.8478    1.0000 </r>
       <r>    7.8798    1.0000 </r>
       <r>    7.9979    1.0000 </r>
       <r>    8.0566    1.0000 </r>
       <r>    8.0581    1.0000 </r>
       <r>    8.0918    1.0000 </r>
       <r>    8.1000    1.0000 </r>
       <r>    8.2125    1.0000 </r>
       <r>    8.5140    1.0000 </r>
       <r>    8.6143    1.0000 </r>
       <r>    8.6826    1.0000 </r>
       <r>    8.8453    1.0000 </r>
       <r>    8.8658    1.0000 </r>
       <r>    8.8729    1.0000 </r>
       <r>    8.9389    0.9998 </r>
       <r>    8.9618    0.9994 </r>
       <r>    8.9674    0.9993 </r>
       <r>    8.9731    0.9990 </r>
       <r>    8.9735    0.9990 </r>
       <r>    8.9923    0.9976 </r>
       <r>    9.0617    0.9673 </r>
       <r>    9.0839    0.9369 </r>
       <r>    9.0858    0.9334 </r>
       <r>    9.1234    0.8341 </r>
       <r>    9.2399    0.2489 </r>
       <r>    9.2816    0.1025 </r>
       <r>    9.7354    0.0000 </r>
       <r>    9.7963    0.0000 </r>
       <r>   10.0831    0.0000 </r>
       <r>   10.3981    0.0000 </r>
       <r>   11.8002    0.0000 </r>
       <r>   12.4197    0.0000 </r>
       <r>   12.5000    0.0000 </r>
       <r>   12.7156    0.0000 </r>
       <r>   13.2386    0.0000 </r>
       <r>   14.0956    0.0000 </r>
       <r>   14.5520    0.0000 </r>
       <r>   15.2481    0.0000 </r>
       <r>   15.2538    0.0000 </r>
       <r>   16.3271    0.0000 </r>
       <r>   16.4013    0.0000 </r>
       <r>   17.1187    0.0000 </r>
       <r>   17.4932    0.0000 </r>
       <r>   18.2857    0.0000 </r>
       <r>   18.4658    0.0000 </r>
       <r>   18.7614    0.0000 </r>
       <r>   19.1448    0.0000 </r>
       <r>   19.5698    0.0000 </r>
      </set>
     </set>
    </set>
   </array>
  </eigenvalues>
  <separator name="orbital magnetization" >
   <v name="MAGDIPOLOUT">      0.00000000      0.00000000      0.00000000</v>
  </separator>
  <dos>
   <i name="efermi">      9.19200491 </i>
   <total>
    <array>
     <dimension dim="1">gridpoints</dimension>
     <dimension dim="2">spin</dimension>
     <field>energy</field>
     <field>total</field>
     <field>integrated</field>
     <set>
      <set comment="spin 1">
       <r>   -43.8471     0.0000     0.0000 </r>
       <r>   -43.6213     0.0000     0.0000 </r>
       <r>   -43.3955     0.0000     0.0000 </r>
       <r>   -43.1697     0.0000     0.0000 </r>
       <r>   -42.9439     0.0000     0.0000 </r>
       <r>   -42.7181     0.0000     0.0000 </r>
       <r>   -42.4924     0.0000     0.0000 </r>
       <r>   -42.2666     0.0000     0.0000 </r>
       <r>   -42.0408     0.0000     0.0000 </r>
       <r>   -41.8150     0.0000     0.0000 </r>
       <r>   -41.5892     0.0000     0.0000 </r>
       <r>   -41.3634     0.0000     0.0000 </r>
       <r>   -41.1376     0.0000     0.0000 </r>
       <r>   -40.9118     0.2677     0.0604 </r>
       <r>   -40.6860    71.3099    16.1616 </r>
       <r>   -40.4602   255.8347    73.9268 </r>
       <r>   -40.2344    97.5430    95.9511 </r>
       <r>   -40.0087     0.2164    96.0000 </r>
       <r>   -39.7829     0.0000    96.0000 </r>
       <r>   -39.5571     0.0000    96.0000 </r>
       <r>   -39.3313     0.0000    96.0000 </r>
       <r>   -39.1055     0.0000    96.0000 </r>
       <r>   -38.8797     0.0000    96.0000 </r>
       <r>   -38.6539     0.0000    96.0000 </r>
       <r>   -38.4281     0.0000    96.0000 </r>
       <r>   -38.2023     0.0000    96.0000 </r>
       <r>   -37.9765     0.0000    96.0000 </r>
       <r>   -37.7507     0.0000    96.0000 </r>
       <r>   -37.5249     0.0000    96.0000 </r>
       <r>   -37.2992     0.0000    96.0000 </r>
       <r>   -37.0734     0.0000    96.0000 </r>
       <r>   -36.8476     0.0000    96.0000 </r>
       <r>   -36.6218     0.0000    96.0000 </r>
       <r>   -36.3960     0.0000    96.0000 </r>
       <r>   -36.1702     0.0000    96.0000 </r>
       <r>   -35.9444     0.0000    96.0000 </r>
       <r>   -35.7186     0.0000    96.0000 </r>
       <r>   -35.4928     0.0000    96.0000 </r>
       <r>   -35.2670     0.0000    96.0000 </r>
       <r>   -35.0412     0.0000    96.0000 </r>
       <r>   -34.8155     0.0000    96.0000 </r>
       <r>   -34.5897     0.0000    96.0000 </r>
       <r>   -34.3639     0.0000    96.0000 </r>
       <r>   -34.1381     0.0000    96.0000 </r>
       <r>   -33.9123     0.0000    96.0000 </r>
       <r>   -33.6865     0.0000    96.0000 </r>
       <r>   -33.4607     0.0000    96.0000 </r>
       <r>   -33.2349     0.0000    96.0000 </r>
       <r>   -33.0091     0.0000    96.0000 </r>
       <r>   -32.7833     0.0000    96.0000 </r>
       <r>   -32.5575     0.0000    96.0000 </r>
       <r>   -32.3318     0.0000    96.0000 </r>
       <r>   -32.1060     0.0000    96.0000 </r>
       <r>   -31.8802     0.0000    96.0000 </r>
       <r>   -31.6544     0.0000    96.0000 </r>
       <r>   -31.4286     0.0000    96.0000 </r>
       <r>   -31.2028     0.0000    96.0000 </r>
       <r>   -30.9770     0.0000    96.0000 </r>
       <r>   -30.7512     0.0000    96.0000 </r>
       <r>   -30.5254     0.0000    96.0000 </r>
       <r>   -30.2996     0.0000    96.0000 </r>
       <r>   -30.0738     0.0000    96.0000 </r>
       <r>   -29.8480     0.0000    96.0000 </r>
       <r>   -29.6223     0.0000    96.0000 </r>
       <r>   -29.3965     0.0000    96.0000 </r>
       <r>   -29.1707     0.0000    96.0000 </r>
       <r>   -28.9449     0.0000    96.0000 </r>
       <r>   -28.7191     0.0000    96.0000 </r>
       <r>   -28.4933     0.0000    96.0000 </r>
       <r>   -28.2675     0.0000    96.0000 </r>
       <r>   -28.0417     0.0000    96.0000 </r>
       <r>   -27.8159     0.0000    96.0000 </r>
       <r>   -27.5901     0.0000    96.0000 </r>
       <r>   -27.3643     0.0000    96.0000 </r>
       <r>   -27.1386     0.0000    96.0000 </r>
       <r>   -26.9128     0.0000    96.0000 </r>
       <r>   -26.6870     0.0000    96.0000 </r>
       <r>   -26.4612     0.0000    96.0000 </r>
       <r>   -26.2354     0.0000    96.0000 </r>
       <r>   -26.0096     0.0000    96.0000 </r>
       <r>   -25.7838     0.0000    96.0000 </r>
       <r>   -25.5580     0.0000    96.0000 </r>
       <r>   -25.3322     0.0000    96.0000 </r>
       <r>   -25.1064     0.0000    96.0000 </r>
       <r>   -24.8806     0.0000    96.0000 </r>
       <r>   -24.6549     0.0000    96.0000 </r>
       <r>   -24.4291     0.0000    96.0000 </r>
       <r>   -24.2033     0.0000    96.0000 </r>
       <r>   -23.9775     0.0000    96.0000 </r>
       <r>   -23.7517     0.0000    96.0000 </r>
       <r>   -23.5259     0.0000    96.0000 </r>
       <r>   -23.3001     0.0000    96.0000 </r>
       <r>   -23.0743     0.0000    96.0000 </r>
       <r>   -22.8485     0.0000    96.0000 </r>
       <r>   -22.6227     0.0000    96.0000 </r>
       <r>   -22.3969     0.0000    96.0000 </r>
       <r>   -22.1711     0.0000    96.0000 </r>
       <r>   -21.9454     0.0000    96.0000 </r>
       <r>   -21.7196     0.0000    96.0000 </r>
       <r>   -21.4938     0.0000    96.0000 </r>
       <r>   -21.2680     0.0000    96.0000 </r>
       <r>   -21.0422     0.0000    96.0000 </r>
       <r>   -20.8164     0.0000    96.0000 </r>
       <r>   -20.5906     0.0000    96.0000 </r>
       <r>   -20.3648     0.0000    96.0000 </r>
       <r>   -20.1390     0.0000    96.0000 </r>
       <r>   -19.9132     0.0000    96.0000 </r>
       <r>   -19.6874     0.0000    96.0000 </r>
       <r>   -19.4617     0.0000    96.0000 </r>
       <r>   -19.2359     0.0000    96.0000 </r>
       <r>   -19.0101     0.0000    96.0000 </r>
       <r>   -18.7843     0.0000    96.0000 </r>
       <r>   -18.5585     0.0000    96.0000 </r>
       <r>   -18.3327     0.0000    96.0000 </r>
       <r>   -18.1069     0.0000    96.0000 </r>
       <r>   -17.8811     0.0000    96.0000 </r>
       <r>   -17.6553     0.0000    96.0000 </r>
       <r>   -17.4295     0.0000    96.0000 </r>
       <r>   -17.2037     0.0000    96.0000 </r>
       <r>   -16.9780     0.0000    96.0000 </r>
       <r>   -16.7522     0.0000    96.0000 </r>
       <r>   -16.5264     0.0000    96.0000 </r>
       <r>   -16.3006     0.0000    96.0000 </r>
       <r>   -16.0748     0.0000    96.0000 </r>
       <r>   -15.8490     0.0000    96.0000 </r>
       <r>   -15.6232     0.0000    96.0000 </r>
       <r>   -15.3974     0.0000    96.0000 </r>
       <r>   -15.1716     0.0000    96.0000 </r>
       <r>   -14.9458     0.0000    96.0000 </r>
       <r>   -14.7200     0.0000    96.0000 </r>
       <r>   -14.4943     0.0000    96.0000 </r>
       <r>   -14.2685     0.0000    96.0000 </r>
       <r>   -14.0427     0.0000    96.0000 </r>
       <r>   -13.8169     0.0000    96.0000 </r>
       <r>   -13.5911     0.0000    96.0000 </r>
       <r>   -13.3653     0.0000    96.0000 </r>
       <r>   -13.1395     0.0000    96.0000 </r>
       <r>   -12.9137     0.0000    96.0000 </r>
       <r>   -12.6879     0.0000    96.0000 </r>
       <r>   -12.4621     0.0000    96.0000 </r>
       <r>   -12.2363     0.0000    96.0000 </r>
       <r>   -12.0105     0.0000    96.0000 </r>
       <r>   -11.7848     0.0000    96.0000 </r>
       <r>   -11.5590     0.0000    96.0000 </r>
       <r>   -11.3332     0.0000    96.0000 </r>
       <r>   -11.1074     0.0000    96.0000 </r>
       <r>   -10.8816     0.0000    96.0000 </r>
       <r>   -10.6558     0.0000    96.0000 </r>
       <r>   -10.4300     0.0000    96.0000 </r>
       <r>   -10.2042     0.0000    96.0000 </r>
       <r>    -9.9784     0.0000    96.0000 </r>
       <r>    -9.7526     0.0000    96.0000 </r>
       <r>    -9.5268     0.0000    96.0000 </r>
       <r>    -9.3011     0.0000    96.0000 </r>
       <r>    -9.0753     0.0000    96.0000 </r>
       <r>    -8.8495     0.0000    96.0000 </r>
       <r>    -8.6237     0.0000    96.0000 </r>
       <r>    -8.3979     0.0000    96.0000 </r>
       <r>    -8.1721     0.0000    96.0000 </r>
       <r>    -7.9463     0.0000    96.0000 </r>
       <r>    -7.7205     0.0000    96.0000 </r>
       <r>    -7.4947     0.0000    96.0000 </r>
       <r>    -7.2689     0.0000    96.0000 </r>
       <r>    -7.0431     0.0000    96.0000 </r>
       <r>    -6.8174     0.0000    96.0000 </r>
       <r>    -6.5916     0.0000    96.0000 </r>
       <r>    -6.3658     0.0000    96.0000 </r>
       <r>    -6.1400     0.0000    96.0000 </r>
       <r>    -5.9142     0.0000    96.0000 </r>
       <r>    -5.6884     0.0000    96.0000 </r>
       <r>    -5.4626     0.0000    96.0000 </r>
       <r>    -5.2368     0.0000    96.0000 </r>
       <r>    -5.0110     0.0000    96.0000 </r>
       <r>    -4.7852     0.0000    96.0000 </r>
       <r>    -4.5594     0.0000    96.0000 </r>
       <r>    -4.3336     0.0000    96.0000 </r>
       <r>    -4.1079     0.0000    96.0000 </r>
       <r>    -3.8821     0.0000    96.0000 </r>
       <r>    -3.6563     0.0000    96.0000 </r>
       <r>    -3.4305     0.0000    96.0000 </r>
       <r>    -3.2047     0.0000    96.0000 </r>
       <r>    -2.9789     0.0000    96.0000 </r>
       <r>    -2.7531     0.0000    96.0000 </r>
       <r>    -2.5273     0.0000    96.0000 </r>
       <r>    -2.3015     0.0000    96.0000 </r>
       <r>    -2.0757     0.0000    96.0000 </r>
       <r>    -1.8499     0.0000    96.0000 </r>
       <r>    -1.6242     0.0000    96.0000 </r>
       <r>    -1.3984     0.0000    96.0000 </r>
       <r>    -1.1726     0.0000    96.0000 </r>
       <r>    -0.9468     0.0000    96.0000 </r>
       <r>    -0.7210     0.0000    96.0000 </r>
       <r>    -0.4952     0.0000    96.0000 </r>
       <r>    -0.2694     0.0000    96.0000 </r>
       <r>    -0.0436     0.0000    96.0000 </r>
       <r>     0.1822     0.0000    96.0000 </r>
       <r>     0.4080     0.0000    96.0000 </r>
       <r>     0.6338     0.0000    96.0000 </r>
       <r>     0.8595     0.0000    96.0000 </r>
       <r>     1.0853     0.0000    96.0000 </r>
       <r>     1.3111     0.0000    96.0000 </r>
       <r>     1.5369     0.0000    96.0000 </r>
       <r>     1.7627     0.0000    96.0000 </r>
       <r>     1.9885     0.0000    96.0000 </r>
       <r>     2.2143     0.0159    96.0036 </r>
       <r>     2.4401     0.3344    96.0791 </r>
       <r>     2.6659     0.6766    96.2319 </r>
       <r>     2.8917     1.0069    96.4592 </r>
       <r>     3.1175     1.3711    96.7688 </r>
       <r>     3.3432     1.1211    97.0220 </r>
       <r>     3.5690     2.1914    97.5167 </r>
       <r>     3.7948     2.1802    98.0090 </r>
       <r>     4.0206     3.1460    98.7193 </r>
       <r>     4.2464    10.2223   101.0274 </r>
       <r>     4.4722    22.2112   106.0425 </r>
       <r>     4.6980    31.7117   113.2027 </r>
       <r>     4.9238    38.5591   121.9090 </r>
       <r>     5.1496    32.7108   129.2949 </r>
       <r>     5.3754    25.9624   135.1569 </r>
       <r>     5.6012    23.8818   140.5492 </r>
       <r>     5.8270    27.7346   146.8115 </r>
       <r>     6.0527    26.4292   152.7789 </r>
       <r>     6.2785    29.2594   159.3855 </r>
       <r>     6.5043    32.4096   166.7033 </r>
       <r>     6.7301    41.1504   175.9947 </r>
       <r>     6.9559    47.4908   186.7177 </r>
       <r>     7.1817    30.3193   193.5635 </r>
       <r>     7.4075    26.9638   199.6517 </r>
       <r>     7.6333    27.0408   205.7572 </r>
       <r>     7.8591    32.3639   213.0647 </r>
       <r>     8.0849    33.8844   220.7155 </r>
       <r>     8.3107    27.9581   227.0282 </r>
       <r>     8.5364    27.3010   233.1925 </r>
       <r>     8.7622    26.3165   239.1346 </r>
       <r>     8.9880    32.7216   246.5228 </r>
       <r>     9.2138    45.8320   256.8713 </r>
       <r>     9.4396    24.9118   262.4961 </r>
       <r>     9.6654     7.1686   264.1148 </r>
       <r>     9.8912     3.4039   264.8833 </r>
       <r>    10.1170     2.5100   265.4501 </r>
       <r>    10.3428     3.1775   266.1675 </r>
       <r>    10.5686     4.7702   267.2446 </r>
       <r>    10.7944     5.2182   268.4228 </r>
       <r>    11.0201     4.2504   269.3825 </r>
       <r>    11.2459     3.6675   270.2106 </r>
       <r>    11.4717     3.5477   271.0116 </r>
       <r>    11.6975     4.6359   272.0584 </r>
       <r>    11.9233     3.4053   272.8273 </r>
       <r>    12.1491     2.6530   273.4263 </r>
       <r>    12.3749     4.3819   274.4157 </r>
       <r>    12.6007     4.6517   275.4660 </r>
       <r>    12.8265     5.7144   276.7563 </r>
       <r>    13.0523     4.7591   277.8308 </r>
       <r>    13.2781     3.1720   278.5471 </r>
       <r>    13.5039     2.9725   279.2182 </r>
       <r>    13.7296     3.1578   279.9312 </r>
       <r>    13.9554     3.5052   280.7227 </r>
       <r>    14.1812     3.7043   281.5591 </r>
       <r>    14.4070     3.3775   282.3217 </r>
       <r>    14.6328     3.9679   283.2176 </r>
       <r>    14.8586     3.0158   283.8985 </r>
       <r>    15.0844     3.0901   284.5963 </r>
       <r>    15.3102     2.6300   285.1901 </r>
       <r>    15.5360     2.1344   285.6720 </r>
       <r>    15.7618     1.6252   286.0390 </r>
       <r>    15.9876     2.3555   286.5708 </r>
       <r>    16.2133     2.2119   287.0703 </r>
       <r>    16.4391     5.1359   288.2299 </r>
       <r>    16.6649     6.3043   289.6534 </r>
       <r>    16.8907     6.5349   291.1289 </r>
       <r>    17.1165     5.2408   292.3122 </r>
       <r>    17.3423     4.6843   293.3699 </r>
       <r>    17.5681     5.6196   294.6387 </r>
       <r>    17.7939     4.4555   295.6447 </r>
       <r>    18.0197     4.5318   296.6680 </r>
       <r>    18.2455     4.1408   297.6029 </r>
       <r>    18.4713     4.3375   298.5823 </r>
       <r>    18.6970     3.2620   299.3188 </r>
       <r>    18.9228     4.2425   300.2768 </r>
       <r>    19.1486     5.1131   301.4312 </r>
       <r>    19.3744     3.5583   302.2347 </r>
       <r>    19.6002     4.6330   303.2808 </r>
       <r>    19.8260     5.0333   304.4172 </r>
       <r>    20.0518     3.2639   305.1542 </r>
       <r>    20.2776     2.1196   305.6328 </r>
       <r>    20.5034     1.0328   305.8660 </r>
       <r>    20.7292     0.3810   305.9520 </r>
       <r>    20.9550     0.2086   305.9991 </r>
       <r>    21.1807     0.0040   306.0000 </r>
       <r>    21.4065     0.0000   306.0000 </r>
       <r>    21.6323     0.0000   306.0000 </r>
       <r>    21.8581     0.0000   306.0000 </r>
       <r>    22.0839     0.0000   306.0000 </r>
       <r>    22.3097     0.0000   306.0000 </r>
       <r>    22.5355     0.0000   306.0000 </r>
       <r>    22.7613     0.0000   306.0000 </r>
       <r>    22.9871     0.0000   306.0000 </r>
       <r>    23.2129     0.0000   306.0000 </r>
       <r>    23.4387     0.0000   306.0000 </r>
       <r>    23.6645     0.0000   306.0000 </r>
       <r>    23.8902     0.0000   306.0000 </r>
      </set>
     </set>
    </array>
   </total>
  </dos>
 </calculation>
 <structure name="finalpos" >
  <crystal>
   <varray name="basis" >
    <v>       7.85400000       3.92700000       3.92700000 </v>
    <v>       3.92700000       7.85400000       3.92700000 </v>
    <v>       3.92700000       3.92700000       7.85400000 </v>
   </varray>
   <i name="volume">    242.23823593 </i>
   <varray name="rec_basis" >
    <v>       0.19098549      -0.06366183      -0.06366183 </v>
    <v>      -0.06366183       0.19098549      -0.06366183 </v>
    <v>      -0.06366183      -0.06366183       0.19098549 </v>
   </varray>
  </crystal>
  <varray name="positions" >
   <v>       0.00103959       0.00000000       0.00000000 </v>
   <v>       0.75000000       0.25000000       0.25000000 </v>
   <v>       0.50000000       0.50000000       0.50000000 </v>
   <v>       0.25000000       0.75000000       0.75000000 </v>
   <v>       0.25000000       0.75000000       0.25000000 </v>
   <v>       0.00000000       0.00000000       0.50000000 </v>
   <v>       0.75000000       0.25000000       0.75000000 </v>
   <v>       0.50000000       0.50000000       0.00000000 </v>
   <v>       0.25000000       0.25000000       0.75000000 </v>
   <v>       0.00000000       0.50000000       0.00000000 </v>
   <v>       0.75000000       0.75000000       0.25000000 </v>
   <v>       0.50000000       0.00000000       0.50000000 </v>
   <v>       0.50000000       0.00000000       0.00000000 </v>
   <v>       0.25000000       0.25000000       0.25000000 </v>
   <v>       0.00000000       0.50000000       0.50000000 </v>
   <v>       0.75000000       0.75000000       0.75000000 </v>
  </varray>
 </structure>
</modeling>
