32
dft_energy=-128.15366128 dft_virial="-1.88571296       0.86633748       1.88263728       0.86633748      -0.19283368      -1.51143748       1.88263728      -1.51143748      -0.21383540" cutoff=-1.00000000 nneightol=1.20000000 pbc="T T T" Lattice="0.00000000       0.00000000      -8.08849109       0.00000000       8.08849109       0.00000000       8.08165087      -4.04424554       4.04424554" Properties=species:S:1:pos:R:3:Z:I:1:dft_force:R:3
Pd              0.06305000     -0.00473000     -7.98916000      46     -0.53995100      0.02873800     -0.66109700
Pd              0.04080000     -0.00311000     -3.97689000      46     -0.34133400      0.01421600     -0.28643400
Pd              0.06144000      4.03962000     -7.99102000      46     -0.55781500     -0.01254600     -0.67865100
Pd              0.03273000      4.04174000     -3.98916000      46     -0.32419100      0.00785300     -0.24314600
Pd              4.06468000     -2.02397000     -6.02491000      46     -0.31690000      0.03341600     -0.59395500
Pd              4.01624000      6.06815000     -2.05669000      46     -0.02273600      0.00218800     -0.04325800
Pd              4.05521000      2.02098000     -6.03955000      46     -0.21747700      0.02121700     -0.45241600
Pd              4.00743000      2.02457000     -2.07085000      46      0.04230400     -0.00286000      0.05941500
Pd              2.04148000     -0.00152000     -1.99315000      46     -0.03846900     -0.01072600     -0.08689100
Pd              1.99312000      0.00211000     -6.11313000      46      0.27109000     -0.03954900      0.48045400
Pd              2.03189000      4.04345000     -2.00839000      46     -0.01304800      0.01354800     -0.03729600
Pd              1.98452000      4.04699000     -6.12628000      46      0.33268600     -0.00065600      0.56199300
Pd              6.01764000     -2.01881000     -0.07158000      46      0.30135900     -0.01077300      0.21622800
Pd              5.99798000     -2.01738000     -4.14364000      46      0.48358100     -0.01705600      0.52564700
Pd              6.01100000      2.02593000     -0.08149000      46      0.31705300     -0.00108200      0.24124800
Pd              5.99851000      2.02682000     -4.14213000      46      0.43846000      0.01792000      0.46128000
Ag              0.05498000      2.01795000     -1.93616000      47     -0.29932100      0.00641300     -0.25090100
Ag              0.01608000      2.02095000     -6.04329000      47     -0.41222000     -0.02187800      0.06860200
Ag              0.04926000      6.06264000     -1.94556000      47     -0.29502900      0.01827100     -0.23017600
Ag              0.00623000      6.06595000     -6.05898000      47     -0.37634500      0.00883300      0.13397700
Ag              4.03706000      0.00035000     -0.00849000      47      0.06461700     -0.01826500     -0.04278800
Ag              3.99317000      0.00368000     -4.12153000      47     -0.00462000     -0.02870200      0.34922800
Ag              4.02715000      4.04535000     -0.02415000      47      0.09413200      0.00681700      0.00647400
Ag              3.98714000      4.04838000     -4.13079000      47      0.01938200     -0.02985100      0.38148100
Ag              2.05786000      2.01921000      0.06145000      47      0.01073700      0.01307200     -0.36081900
Ag              2.01042000      2.02283000     -4.05762000      47     -0.06206500      0.00180000      0.05972400
Ag              2.04933000      6.06410000      0.04812000      47      0.08129600      0.03565400     -0.25996100
Ag              2.00070000      6.06782000     -4.07314000      47      0.00610300     -0.00456600      0.15413900
Ag              6.03228000      0.00216000      1.97842000      47      0.41657600      0.01471000     -0.00797200
Ag              6.00062000      0.00462000     -2.11754000      47      0.24726500     -0.02100700      0.24026900
Ag              6.02376000      4.04706000      1.96468000      47      0.43697600     -0.02182400      0.04707600
Ag              5.99829000      4.04905000     -2.12162000      47      0.25790400     -0.00332400      0.24852600
32
dft_energy=-128.42997284 dft_virial="-3.44066531       0.84491005       0.54001549       0.84491005      -1.32988018      -1.93035316       0.54001549      -1.93035316      -1.15306179" cutoff=-1.00000000 nneightol=1.20000000 pbc="T T T" Lattice="0.00000000       0.00000000      -8.08849109       0.00000000       8.08849109       0.00000000       8.08165087      -4.04424554       4.04424554" Properties=species:S:1:pos:R:3:Z:I:1:dft_force:R:3
Pd              8.05342000      4.00093000     -4.00409000      46      0.13076700      0.18506300     -0.17527400
Pd              8.04845000      3.99573000      0.04965000      46      0.19251400      0.16270200     -0.17101700
Pd              8.04845000     -0.04852000     -3.99460000      46      0.11618600      0.19329100     -0.19568900
Pd              8.06293000     -0.02530000      0.03005000      46      0.10844100      0.07451700     -0.07365600
Pd              4.00762000      6.01785000     -6.01672000      46      0.14980800      0.32238700     -0.37572800
Pd              4.02210000      6.04107000     -1.99207000      46      0.12787200      0.15567900     -0.17565400
Pd              4.02210000      1.99682000     -6.03631000      46      0.05924800      0.17168800     -0.21852200
Pd              4.04755000      2.03486000     -2.02927000      46     -0.05340800     -0.08436500      0.06267400
Pd              2.04852000      0.04314000     -2.06207000      46     -0.11168700     -0.28758400      0.25688300
Pd              2.02691000      0.01240000     -6.07317000      46     -0.11106700     -0.12412600      0.07150300
Pd              2.02691000      4.05664000     -2.02892000      46     -0.10767300     -0.14340300      0.02243500
Pd              2.00149000      4.01864000     -6.03603000      46     -0.03343900      0.11012300     -0.23301800
Pd              6.06773000     -2.00972000     -0.00680000      46     -0.05283200     -0.22545600      0.23303100
Pd              6.04232000     -2.04772000     -4.01391000      46      0.06486600      0.07644800     -0.02602300
Pd              6.04232000      1.99652000      0.03034000      46      0.01754400      0.03569000     -0.09908500
Pd              6.02799000      1.97352000     -3.99455000      46      0.15104600      0.20677100     -0.23065200
Ag              8.07842000     -2.06852000      2.06787000      47     -0.09152200      0.17507800     -0.17450900
Ag              8.07983000     -2.04948000     -1.99752000      47      0.00024400     -0.09572100     -0.04171600
Ag              8.07983000      1.99477000      2.04673000      47      0.00695100      0.04846100      0.10044000
Ag              0.00066000      6.07409000     -6.07732000      47      0.06216400     -0.22089800      0.24561700
Ag              4.03900000     -0.02735000      0.02461000      47     -0.09280700      0.11560300     -0.08462300
Ag              4.04148000      0.00772000     -4.05519000      47     -0.01863400     -0.24553000      0.11183100
Ag              4.04148000      4.05196000     -0.01095000      47     -0.01391200     -0.08284400      0.28277400
Ag              4.04358000      4.08251000     -4.08433000      47      0.02097900     -0.42677000      0.43357800
Ag              2.02315000      2.06020000     -0.03991000      47      0.02553300     -0.26493600      0.28707100
Ag              2.02105000      2.02952000     -4.05487000      47     -0.10370200     -0.03454000      0.16018500
Ag              2.02105000      6.07376000     -0.01063000      47     -0.08812300     -0.08519600      0.11690100
Ag              2.01857000      6.03875000     -4.01936000      47     -0.14870900      0.23412700     -0.09538100
Ag              6.06187000      0.00739000      2.01150000      47     -0.03772500     -0.25593500      0.23120500
Ag              6.05940000     -0.02762000     -1.99724000      47     -0.09259600      0.08296600     -0.00579600
Ag              6.05940000      4.01663000      2.04701000      47     -0.04876400      0.00946300     -0.06629600
Ag              6.05800000      3.99779000     -1.97630000      47     -0.02756300      0.21724800     -0.17348800
32
dft_energy=-110.58022786 dft_virial="22.66824658       4.33465993      -0.24716665       4.33465993      36.06229280       1.97454684      -0.24716665       1.97454684      26.76619235" cutoff=-1.00000000 nneightol=1.20000000 pbc="T T T" Lattice="0.00000000       8.38960000       0.00000000       0.00000000       0.00000000       8.38960000       8.38960000       0.00000000       0.00000000" Properties=species:S:1:pos:R:3:Z:I:1:dft_force:R:3
Pd              7.03917000      5.94799000      1.22736000      46     -0.42014300      0.81926700      0.45746500
Pd              6.27841000      0.55316000      1.08768000      46      1.49540200      0.28712100     -0.48257500
Pd              2.82250000      0.89387000      6.00227000      46      1.02136900     -2.64397700     -3.30430900
Pd              1.63143000      2.56769000      7.03898000      46     -3.23238400      3.38659200      2.11954900
Pd              6.91400000      3.56875000      2.41179000      46      1.05112900      0.80602900      0.38285600
Pd              6.33702000      1.48570000      3.65206000      46      0.91109300     -1.12221700     -0.48439100
Pd              1.92823000      3.99478000      2.27091000      46     -0.22194700      3.47306100     -1.60341300
Pd              7.18204000      2.81917000      0.04149000      46      1.34145400      0.35401900      0.13438900
Pd              0.37323000      0.34132000      7.66717000      46     -0.41027500     -0.23652800      1.03478300
Pd              4.72771000      5.00409000      2.22053000      46     -0.07162700      0.35209200     -0.02214100
Pd              1.76502000      8.31436000      2.98129000      46      1.42545400      1.22946900      6.16076100
Pd              1.83232000      6.48576000      6.90919000      46      0.88165600      1.71090900     -1.66119600
Pd              8.31595000      1.39329000      5.27815000      46      2.15290100     -2.71141600     -0.79722200
Pd              4.53165000      8.35400000      4.39001000      46     -0.11001600     -0.76386600      0.54569500
Pd              1.59794000      7.06608000      1.16817000      46     -1.77191700     -3.79016000     -3.32405300
Pd              7.57631000      7.49794000      3.29979000      46     -0.02643300      0.73889800     -0.67229100
Ag              0.09817000      5.00088000      7.77265000      47     -0.20663700     -0.89940100     -0.14836800
Ag              4.21534000      7.77917000      1.84909000      47      0.35642000     -1.89188500      1.49675900
Ag              7.57346000      3.63122000      5.41362000      47     -0.82088000      2.49687100      0.47810000
Ag              3.04160000      0.48976000      0.00360000      47     -0.02121100      0.86650800     -0.07932200
Ag              0.86624000      1.85903000      1.85804000      47     -2.17550700     -0.24350100     -1.56090200
Ag              5.85269000      1.70706000      6.70573000      47      0.09567600     -2.69551700     -1.70678700
Ag              4.95184000      3.49378000      4.28905000      47     -0.08817800     -3.15675600      1.20089600
Ag              3.38156000      5.86245000      4.63539000      47     -1.42775300      0.49692500      0.17156000
Ag              5.86051000      5.63744000      4.41553000      47      3.50225200      3.66862900      0.34638100
Ag              7.16115000      7.48364000      5.95779000      47      0.70185400      0.64713400     -0.38609200
Ag              2.57505000      3.14164000      4.46706000      47     -2.36463000     -1.14908300      1.68321300
Ag              3.93314000      2.45237000      1.67122000      47      0.97209600     -0.71478700     -0.04185500
Ag              3.50308000      5.38126000      0.17889000      47     -1.54523100      0.50479600     -0.69945800
Ag              0.75221000      5.50078000      4.23563000      47     -0.33670800      0.32331500     -0.06406700
Ag              5.66296000      5.88987000      7.13541000      47     -0.52141700     -1.03101200      0.86224200
Ag              4.05813000      3.32803000      7.11533000      47     -0.13586400      0.88847100     -0.03620800
32
dft_energy=-112.42992209 dft_virial="28.89929558      -0.37547128       9.40759118      -0.37547128      18.51644987      -6.83486435       9.40759118      -6.83486435      30.62907881" cutoff=-1.00000000 nneightol=1.20000000 pbc="T T T" Lattice="0.00000000       8.38960000       0.00000000       0.00000000       0.00000000       8.38960000       8.38960000       0.00000000       0.00000000" Properties=species:S:1:pos:R:3:Z:I:1:dft_force:R:3
Pd              7.43675000      3.16573000      2.16598000      46      1.85915200      0.86048000      0.38813400
Pd              4.32788000      0.48767000      2.56943000      46     -0.24385900      0.30109900     -0.74252500
Pd              5.02508000      0.22260000      7.69849000      46      0.29716300     -3.28340600      0.60517800
Pd              0.52403000      5.34831000      1.71933000      46      0.11533200      0.67631400     -1.74101300
Pd              7.02197000      0.71119000      0.65641000      46      0.58262000      0.45599500      1.06496600
Pd              5.22805000      7.07086000      4.11661000      46      0.22749300      1.02282900      1.06135800
Pd              3.97079000      5.44232000      2.47562000      46     -2.67300300      0.26080600     -1.13084700
Pd              0.36103000      2.15407000      3.92579000      46     -0.30293600     -1.42463600     -1.04408000
Pd              0.46830000      7.36113000      8.35829000      46     -1.30026300     -0.47907500     -1.24104000
Pd              1.09998000      2.70580000      6.09644000      46      4.64022600     -1.02706300     -0.95304900
Pd              2.86969000      2.73791000      3.87220000      46      2.02443000     -0.87556900     -0.07229300
Pd              1.95360000      7.29210000      5.95277000      46     -2.09927600      0.21192100      1.38180200
Pd              2.89874000      1.56464000      8.09405000      46     -1.50891200     -0.97242900     -0.09820900
Pd              3.61529000      0.73540000      5.66574000      46     -0.61701400      0.20616300     -1.48846900
Pd              1.35744000      0.44166000      1.82112000      46     -0.26801900      3.81667900     -2.65543500
Pd              3.54265000      5.48387000      5.41689000      46      0.01406600     -0.88889200     -2.31904300
Ag              7.36340000      0.95620000      6.37243000      47      1.25519800     -0.29970500      0.45258900
Ag              2.99883000      7.03548000      0.18219000      47      1.20486800      0.09959800      0.79429200
Ag              5.76642000      4.50357000      3.82550000      47      1.21065700     -0.52589100      1.18191600
Ag              2.54246000      3.51260000      1.22846000      47     -0.32293700      0.43022300      1.56395700
Ag              5.19835000      2.79406000      1.54702000      47     -2.79781200     -0.17363000     -0.87181800
Ag              7.37039000      6.84474000      5.81460000      47      0.56226900     -0.98959800     -0.17022500
Ag              5.69242000      2.02202000      4.75253000      47     -0.72649200     -1.30653100     -3.48238200
Ag              2.09480000      4.80322000      7.38438000      47     -0.78896800      0.25827700      0.31060400
Ag              6.31831000      6.15133000      1.63997000      47      0.60499600      0.73347900     -0.85151100
Ag              2.19657000      7.37427000      3.38481000      47      1.33420600     -2.52171700      2.09510600
Ag              1.25125000      4.68135000      3.97364000      47     -0.26638200      1.10915700      1.71652700
Ag              7.23561000      3.66758000      5.92049000      47      0.17975700      2.24235200      0.13038900
Ag              5.41108000      5.31547000      7.01495000      47      0.67427100      0.73047200      1.54854200
Ag              7.57837000      0.01051000      3.16419000      47     -1.33107000     -1.22995500      0.71677900
Ag              5.09698000      2.59149000      7.12563000      47     -0.34315900      2.62628300      1.01552500
Ag              0.21469000      2.89127000      8.25542000      47     -1.19660300     -0.04402800      2.83427700
32
dft_energy=-110.92564697 dft_virial="47.29543517     -12.06090312       5.68050105     -12.06090312      41.29166819       0.55992845       5.68050105       0.55992845      43.32516310" cutoff=-1.00000000 nneightol=1.20000000 pbc="T T T" Lattice="0.00000000       8.22342000       0.00000000       0.00000000       0.00000000       8.22342000       8.22342000       0.00000000       0.00000000" Properties=species:S:1:pos:R:3:Z:I:1:dft_force:R:3
Pd              8.04731000      0.92237000      3.90603000      46      1.47883100     -1.11238000      0.33683000
Pd              7.54710000      0.07815000      6.17260000      46     -0.22792400     -3.19830300      1.54846600
Pd              4.12405000      0.52976000      3.08637000      46     -1.14198000      0.58889500     -2.05403700
Pd              6.15645000      7.35700000      3.00643000      46      1.88003900     -0.66714900      1.58731400
Pd              1.99293000      7.58502000      1.03810000      46      5.74309700     -0.61692700      1.46713600
Pd              6.79361000      5.57475000      7.91824000      46      0.17658600      1.38618200     -1.02899700
Pd              3.63622000      1.19517000      7.30580000      46      4.86001500     -3.97425900      0.49742000
Pd              4.74515000      6.66929000      7.28700000      46     -2.16288600      0.37640300     -0.69055100
Pd              1.44181000      4.67226000      5.41917000      46      0.66803300     -2.31064300     -1.06086900
Pd              0.99158000      6.20245000      7.11195000      46     -1.20755600      2.60538400      0.84063100
Pd              6.69063000      6.01017000      5.21022000      46      0.01465800     -0.75659500      0.04940600
Pd              8.09935000      2.49250000      5.84111000      46     -0.09036900      2.36977300      0.66300100
Pd              3.07006000      2.16029000      4.62489000      46     -0.31532400      2.19137500      0.53137500
Pd              2.69604000      5.07662000      0.30234000      46      1.37195900     -0.73683100      0.75070700
Pd              7.03155000      2.03296000      2.18194000      46     -0.93801500      0.54209300     -3.29649200
Pd              1.80292000      2.35626000      2.41999000      46     -0.78374500     -0.28313900     -0.61691000
Ag              8.00663000      4.19239000      3.28873000      47     -0.86619600     -2.33740000      3.23175000
Ag              4.16429000      3.96528000      6.33107000      47      0.06419300      0.75511100     -0.01193000
Ag              8.16141000      3.70047000      0.31337000      47     -0.33102800     -1.19210800      0.67604600
Ag              0.42257000      5.83479000      1.80239000      47     -0.61976200      1.73770900     -3.13311300
Ag              0.21058000      0.52532000      0.28248000      47     -3.55346600      2.41185900     -0.34376900
Ag              5.36943000      3.17644000      3.70213000      47     -0.03387600      0.53326600      2.35859900
Ag              1.94938000      2.49658000      7.88418000      47     -2.59069000      3.22729100      0.76714600
Ag              5.40062000      0.89392000      5.47037000      47     -1.08565600      0.33513300     -1.53534200
Ag              2.96652000      4.91806000      3.22776000      47      0.01670600     -1.24115400     -1.19477600
Ag              1.18679000      6.91579000      3.89891000      47      0.06679300      0.71689200      1.22349200
Ag              1.80458000      0.54203000      5.94343000      47     -1.62252500     -2.56951000     -0.84633200
Ag              5.48793000      5.09920000      1.87306000      47     -0.08618700      0.90059400     -0.02828000
Ag              4.35396000      2.84688000      1.35538000      47     -2.81855200     -0.23120100      0.99991300
Ag              3.79344000      6.81256000      4.73759000      47      0.56252300     -0.17945400      1.26926800
Ag              5.69485000      0.15007000      0.78755000      47     -0.48155600     -1.15658900     -0.44531700
Ag              5.80431000      2.29844000      7.77312000      47      4.05386000      1.88568200     -2.51178400
32
dft_energy=-113.23763473 dft_virial="15.41104799      -6.01201119       8.75002440      -6.01201119      18.18819906      -3.91343875       8.75002440      -3.91343875      23.39644135" cutoff=-1.00000000 nneightol=1.20000000 pbc="T T T" Lattice="0.00000000       8.38960000       0.00000000       0.00000000       0.00000000       8.38960000       8.38960000       0.00000000       0.00000000" Properties=species:S:1:pos:R:3:Z:I:1:dft_force:R:3
Pd              6.81160000      3.61704000      3.15272000      46      0.33390500      0.16282500      0.29502800
Pd              4.20775000      7.30286000      3.32514000      46     -0.19210700      0.71744000      1.04415500
Pd              5.38768000      0.85520000      8.19350000      46     -1.27518500      1.33639700     -0.74434100
Pd              3.01722000      5.15889000      2.51383000      46     -1.19815000     -0.26130600     -1.18938100
Pd              6.11767000      3.13104000      0.77568000      46      0.20046100      0.44492300      0.20862800
Pd              6.25825000      0.17466000      5.84358000      46     -1.23721700      1.38757700     -1.98377500
Pd              4.88693000      4.75558000      4.19722000      46     -2.35015300     -1.72621000      0.97049500
Pd              1.82450000      2.83275000      3.35723000      46      0.67531200     -0.42215800     -0.45593700
Pd              0.61036000      0.03597000      5.68551000      46      0.53942200     -0.59044500      1.18476400
Pd              1.69189000      5.62208000      7.91686000      46      1.16637300     -1.65202200     -1.26573700
Pd              1.46514000      8.22084000      3.22713000      46      0.92564500      0.86291300      0.18193600
Pd              2.00833000      6.32887000      5.33543000      46      0.44830300     -0.41190800     -0.55398200
Pd              0.04771000      2.19695000      7.20517000      46     -1.44211900      0.98418400     -0.77212300
Pd              3.54636000      8.35758000      5.94924000      46     -0.22484200      0.13733600      0.53750100
Pd              1.54340000      0.97221000      0.28447000      46     -0.37986700     -1.53268500      0.36066100
Pd              4.32289000      1.92324000      4.39969000      46      0.24348400      0.28284200     -0.35860200
Ag              7.92751000      1.86464000      4.35364000      47      0.40140300     -0.73047800      0.75396700
Ag              0.58694000      7.04336000      1.08988000      47     -0.04931500     -0.31913900      2.57484900
Ag              6.59997000      6.49435000      4.41472000      47      0.93023500      1.29876600      1.06661300
Ag              3.22950000      2.83088000      0.15275000      47      0.26331700      3.01652100     -1.25232100
Ag              3.64803000      1.03361000      1.76645000      47     -0.36545200      0.56411500      3.12729400
Ag              7.94547000      4.66480000      6.23346000      47      0.14754100      0.19335000     -0.49493000
Ag              6.22459000      0.79424000      2.39229000      47      0.73936400     -0.27840200      0.60048900
Ag              3.93784000      7.30172000      0.46361000      47     -1.22051500     -2.42799300     -0.38551100
Ag              6.01497000      5.70614000      1.94735000      47     -0.36992400      0.91869500     -0.21682600
Ag              0.39253000      5.69156000      3.41220000      47      0.54292600     -1.33945200     -0.58098100
Ag              2.15733000      3.63481000      5.86317000      47      0.28638600     -0.62745300      0.19447500
Ag              5.40953000      3.15931000      6.72666000      47      0.38063500     -0.60309700     -1.69870900
Ag              6.21090000      5.96551000      7.87105000      47      0.76476600     -1.12581800     -0.60543800
Ag              7.48213000      8.07010000      7.88735000      47      2.33914200      0.93773100      0.35132200
Ag              4.16072000      5.44138000      6.61908000      47     -1.49318800      0.61462500     -0.20478500
Ag              0.38305000      3.67973000      1.25590000      47      0.46941200      0.18832700     -0.68879600
32
dft_energy=-108.24327847 dft_virial="42.96705907       1.42416595       1.13658991       1.42416595      39.07175000      10.11768575       1.13658991      10.11768575      59.77560738" cutoff=-1.00000000 nneightol=1.20000000 pbc="T T T" Lattice="0.00000000       8.38960000       0.00000000       0.00000000       0.00000000       8.38960000       8.38960000       0.00000000       0.00000000" Properties=species:S:1:pos:R:3:Z:I:1:dft_force:R:3
Pd              0.96592000      0.07072000      5.00018000      46     -0.31746800      1.55059900      1.90528600
Pd              3.72974000      5.47568000      7.95151000      46     -0.63810700     -2.09895700     -1.83619600
Pd              7.78192000      2.71985000      6.67591000      46      2.53107900     -1.57615900     -0.99366800
Pd              7.60607000      4.63343000      5.20822000      46      1.29780800      3.82539300     -0.83649400
Pd              1.80248000      3.86334000      7.42439000      46     -1.08143700     -1.27520300      1.87343100
Pd              5.81836000      4.19580000      6.86391000      46     -1.46336600      0.47324000     -0.54345300
Pd              6.17905000      1.46732000      7.94536000      46     -2.76474500     -0.14669200      1.05249900
Pd              3.65802000      2.87167000      2.76155000      46     -1.86894400      3.21812700      4.10267000
Pd              3.33028000      4.34808000      5.62345000      46      3.30325700     -0.20654300     -0.25728800
Pd              4.77531000      7.78024000      4.01080000      46     -0.03152900      1.78829800     -4.48799900
Pd              1.36441000      3.37637000      4.88668000      46     -0.91507600      0.88029900      2.36143200
Pd              3.70319000      5.88347000      1.84252000      46      0.06754900      0.30976000      3.64985400
Pd              5.64389000      1.70408000      2.29431000      46      1.38345000     -1.82984600     -0.95864800
Pd              4.79254000      6.91428000      6.11365000      46     -2.13113400     -3.35170500      0.83437800
Pd              7.19513000      4.68668000      2.51812000      46     -1.26141100     -0.17181300      1.29104200
Pd              5.62587000      4.09385000      0.88221000      46     -2.26032000     -1.39174000     -0.00580600
Ag              8.11553000      2.80444000      0.70718000      47      1.16505000      1.45003900      2.28588000
Ag              1.99092000      8.01999000      1.53109000      47      0.34430700     -0.39711900      0.78682300
Ag              3.67128000      0.96120000      5.96552000      47     -0.23038800      1.09378600     -0.50156600
Ag              0.04106000      5.72592000      7.87591000      47     -0.62523700      0.21706000      0.54748600
Ag              3.52047000      2.09195000      0.56815000      47      0.13739900     -0.40684400     -3.05739500
Ag              5.25078000      5.14952000      4.35071000      47      0.43322500     -0.35406600     -2.77021600
Ag              1.50338000      1.03661000      7.68040000      47     -1.01512200     -0.35861900     -0.86558600
Ag              1.57719000      6.18749000      5.70972000      47      0.30055100     -0.49034100      0.39388000
Ag              4.23381000      7.88429000      8.21188000      47     -1.49586700      3.25116100      2.51221500
Ag              1.20256000      4.54323000      2.55362000      47      3.25722400     -0.27740800     -1.18758600
Ag              7.06176000      2.36674000      4.26100000      47     -0.40930700     -1.40477400     -0.60042800
Ag              0.05740000      6.72270000      3.41309000      47     -0.59518100      1.09277100     -0.43546100
Ag              6.87109000      7.92064000      6.48039000      47      3.74652200      0.54996700     -0.51134100
Ag              7.76384000      0.34006000      1.34962000      47      0.78897300     -0.85351500      0.80935400
Ag              1.19178000      1.78918000      3.28765000      47     -0.03064000     -2.52841200     -5.13776800
Ag              6.24426000      6.70485000      0.79248000      47      0.37888500     -0.58074400      0.58067200
32
dft_energy=-127.53020134 dft_virial="0.76536158      -1.02210464       2.85283164      -1.02210464       2.62552200      -2.04032179       2.85283164      -2.04032179       2.37809507" cutoff=-1.00000000 nneightol=1.20000000 pbc="T T T" Lattice="0.00000000       0.00000000      -8.08849109       0.00000000       8.08849109       0.00000000       8.08165087      -4.04424554       4.04424554" Properties=species:S:1:pos:R:3:Z:I:1:dft_force:R:3
Pd              0.06168000      8.02041000     -8.03808000      46     -0.12689200      0.22087000     -0.14797100
Pd              8.01580000     -3.98998000     -0.05550000      46      0.41503000     -0.35308000      0.09679600
Pd              0.02665000      3.98616000     -8.06934000      46     -0.11676900      0.55015600     -0.13845700
Pd              8.03040000      0.06910000     -0.04074000      46      0.37685600     -0.83651000      0.24603200
Pd              4.08489000      5.99932000     -6.03204000      46     -0.02162100      0.19783500     -0.12959100